phonopy:
  version: 2.7.0
  calculator: dftbp
  frequency_unit_conversion_factor: 154.107943
  symmetry_tolerance: 1.00000e-03

physical_unit:
  atomic_mass: "AMU"

space_group:
  type: "Cmce"
  number: 64
  Hall_symbol: "-C 2bc 2"

supercell_matrix:
- [   2,   0,   0 ]
- [   0,   2,   0 ]
- [   0,   0,   2 ]

primitive_cell:
  lattice:
  - [    53.656329809447179,     0.000000000000000,     0.000000000000000 ] # a
  - [     0.000000000000000,    14.360964751150869,     0.000000000000000 ] # b
  - [     0.000000000000000,     0.000000000000000,    28.463552313451732 ] # c
  points:
  - symbol: C  # 1
    coordinates: [  0.025708789841440,  0.999999799057223,  0.000000064269120 ]
    mass: 12.010700
  - symbol: C  # 2
    coordinates: [  0.974291210774894,  0.000000119422485,  0.999999924983498 ]
    mass: 12.010700
  - symbol: C  # 3
    coordinates: [  0.974291211479275,  0.499999892624456,  0.499999949542779 ]
    mass: 12.010700
  - symbol: C  # 4
    coordinates: [  0.025708788179100,  0.500000144746445,  0.500000047137667 ]
    mass: 12.010700
  - symbol: C  # 5
    coordinates: [  0.525708784998818,  0.499999983025190,  0.000000001499896 ]
    mass: 12.010700
  - symbol: C  # 6
    coordinates: [  0.474291211831466,  0.500000005000332,  0.999999997507173 ]
    mass: 12.010700
  - symbol: C  # 7
    coordinates: [  0.474291209718322,  0.000000130739504,  0.500000056366027 ]
    mass: 12.010700
  - symbol: C  # 8
    coordinates: [  0.525708786759771,  0.999999895717627,  0.499999951600902 ]
    mass: 12.010700
  - symbol: C  # 9
    coordinates: [  0.050169100908937,  0.867383456893592,  0.048713363030874 ]
    mass: 12.010700
  - symbol: C  # 10
    coordinates: [  0.949830904092170,  0.132616487971172,  0.951286658174437 ]
    mass: 12.010700
  - symbol: C  # 11
    coordinates: [  0.949830874155962,  0.632616722723587,  0.548713392880303 ]
    mass: 12.010700
  - symbol: C  # 12
    coordinates: [  0.050169130986022,  0.367383322147811,  0.451286592646441 ]
    mass: 12.010700
  - symbol: C  # 13
    coordinates: [  0.949830893878640,  0.367383473342051,  0.451286659303086 ]
    mass: 12.010700
  - symbol: C  # 14
    coordinates: [  0.050169109819362,  0.632616553633423,  0.548713354970996 ]
    mass: 12.010700
  - symbol: C  # 15
    coordinates: [  0.050169138593341,  0.132616681931407,  0.951286595102911 ]
    mass: 12.010700
  - symbol: C  # 16
    coordinates: [  0.949830868168720,  0.867383223325465,  0.048713376315729 ]
    mass: 12.010700
  - symbol: C  # 17
    coordinates: [  0.550169123026513,  0.367383406232336,  0.048713368879928 ]
    mass: 12.010700
  - symbol: C  # 18
    coordinates: [  0.449830877677869,  0.632616586267166,  0.951286642240578 ]
    mass: 12.010700
  - symbol: C  # 19
    coordinates: [  0.449830881199776,  0.132616479023210,  0.548713341958345 ]
    mass: 12.010700
  - symbol: C  # 20
    coordinates: [  0.550169115278317,  0.867383552557833,  0.451286663684897 ]
    mass: 12.010700
  - symbol: C  # 21
    coordinates: [  0.449830880847585,  0.867383228983736,  0.451286594770956 ]
    mass: 12.010700
  - symbol: C  # 22
    coordinates: [  0.550169115630508,  0.132616793780933,  0.548713415453271 ]
    mass: 12.010700
  - symbol: C  # 23
    coordinates: [  0.550169117391461,  0.632616638375887,  0.951286604397662 ]
    mass: 12.010700
  - symbol: C  # 24
    coordinates: [  0.449830883665110,  0.367383346754706,  0.048713382928280 ]
    mass: 12.010700
  - symbol: C  # 25
    coordinates: [  0.025381032397000,  0.731472615771503,  0.091522437970019 ]
    mass: 12.010700
  - symbol: C  # 26
    coordinates: [  0.974618972815422,  0.268527321987526,  0.908477609234040 ]
    mass: 12.010700
  - symbol: C  # 27
    coordinates: [  0.974618946048929,  0.768527522263970,  0.591522462069981 ]
    mass: 12.010700
  - symbol: C  # 28
    coordinates: [  0.025381057346189,  0.231472484841764,  0.408477522261724 ]
    mass: 12.010700
  - symbol: C  # 29
    coordinates: [  0.974618963658464,  0.231472649589536,  0.408477598877031 ]
    mass: 12.010700
  - symbol: C  # 30
    coordinates: [  0.025381040106455,  0.768527394887099,  0.591522427281055 ]
    mass: 12.010700
  - symbol: C  # 31
    coordinates: [  0.025381070306806,  0.268527529369705,  0.908477518942170 ]
    mass: 12.010700
  - symbol: C  # 32
    coordinates: [  0.974618934074446,  0.731472437601788,  0.091522462401936 ]
    mass: 12.010700
  - symbol: C  # 33
    coordinates: [  0.525381052542308,  0.231472573268683,  0.091522448393418 ]
    mass: 12.010700
  - symbol: C  # 34
    coordinates: [  0.474618946753311,  0.768527397124090,  0.908477571391124 ]
    mass: 12.010700
  - symbol: C  # 35
    coordinates: [  0.474618934074446,  0.268527326593095,  0.591522428608876 ]
    mass: 12.010700
  - symbol: C  # 36
    coordinates: [  0.525381062755838,  0.731472699856028,  0.408477579756400 ]
    mass: 12.010700
  - symbol: C  # 37
    coordinates: [  0.474618966475989,  0.731472446944513,  0.408477519606081 ]
    mass: 12.010700
  - symbol: C  # 38
    coordinates: [  0.525381030354294,  0.268527574767454,  0.591522492211531 ]
    mass: 12.010700
  - symbol: C  # 39
    coordinates: [  0.525381035989345,  0.768527459496649,  0.908477536203851 ]
    mass: 12.010700
  - symbol: C  # 40
    coordinates: [  0.474618963306273,  0.231472551951479,  0.091522446401686 ]
    mass: 12.010700
  - symbol: C  # 41
    coordinates: [  0.049420468984873,  0.595583566621397,  0.140469624848855 ]
    mass: 12.010700
  - symbol: C  # 42
    coordinates: [  0.950579586132970,  0.404416716423696,  0.859530374288061 ]
    mass: 12.010700
  - symbol: C  # 43
    coordinates: [  0.950579295927841,  0.904415456734865,  0.640469207248960 ]
    mass: 12.010700
  - symbol: C  # 44
    coordinates: [  0.049420746652014,  0.095584779293951,  0.359530845067212 ]
    mass: 12.010700
  - symbol: C  # 45
    coordinates: [  0.950579532952176,  0.095583473325734,  0.359530430587697 ]
    mass: 12.010700
  - symbol: C  # 46
    coordinates: [  0.049420510261622,  0.904416326134646,  0.640469537478193 ]
    mass: 12.010700
  - symbol: C  # 47
    coordinates: [  0.049420795500863,  0.404415023942996,  0.859530920022741 ]
    mass: 12.010700
  - symbol: C  # 48
    coordinates: [  0.950579258595628,  0.595584659457054,  0.140469150418195 ]
    mass: 12.010700
  - symbol: C  # 49
    coordinates: [  0.549420625533635,  0.095584184675557,  0.140469390421950 ]
    mass: 12.010700
  - symbol: C  # 50
    coordinates: [  0.450579411798578,  0.904416013745502,  0.859530568150015 ]
    mass: 12.010700
  - symbol: C  # 51
    coordinates: [  0.450579491745865,  0.404416390217845,  0.640469653596193 ]
    mass: 12.010700
  - symbol: C  # 52
    coordinates: [  0.549420504380037,  0.595583631625710,  0.359530355432994 ]
    mass: 12.010700
  - symbol: C  # 53
    coordinates: [  0.450579293110315,  0.595584727619470,  0.359530832984035 ]
    mass: 12.010700
  - symbol: C  # 54
    coordinates: [  0.549420703367778,  0.404415290802805,  0.640469184078473 ]
    mass: 12.010700
  - symbol: C  # 55
    coordinates: [  0.549420630464304,  0.904415694908560,  0.859530663753171 ]
    mass: 12.010700
  - symbol: C  # 56
    coordinates: [  0.450579406867909,  0.095584093853742,  0.140469383517278 ]
    mass: 12.010700
  - symbol: C  # 57
    coordinates: [  0.025149123353346,  0.469091686927199,  0.185077798770881 ]
    mass: 12.010700
  - symbol: C  # 58
    coordinates: [  0.974850859745023,  0.530908077399272,  0.814922377364655 ]
    mass: 12.010700
  - symbol: C  # 59
    coordinates: [  0.974850951666793,  0.030909564103162,  0.685078180652375 ]
    mass: 12.010700
  - symbol: C  # 60
    coordinates: [  0.025149033639811,  0.969090252358347,  0.314921740408631 ]
    mass: 12.010700
  - symbol: C  # 61
    coordinates: [  0.974850861153786,  0.969091718508242,  0.314922287271959 ]
    mass: 12.010700
  - symbol: C  # 62
    coordinates: [  0.025149125286873,  0.030908498098233,  0.685077814837522 ]
    mass: 12.010700
  - symbol: C  # 63
    coordinates: [  0.025149032044387,  0.530909956997647,  0.814921679594401 ]
    mass: 12.010700
  - symbol: C  # 64
    coordinates: [  0.974850949201459,  0.469090286834318,  0.185078246844282 ]
    mass: 12.010700
  - symbol: C  # 65
    coordinates: [  0.525149105740289,  0.969091042673934,  0.185078042558928 ]
    mass: 12.010700
  - symbol: C  # 66
    coordinates: [  0.474850877002367,  0.030908755062648,  0.814922045409254 ]
    mass: 12.010700
  - symbol: C  # 67
    coordinates: [  0.474850805859847,  0.530908136745314,  0.685077820812720 ]
    mass: 12.010700
  - symbol: C  # 68
    coordinates: [  0.525149190618246,  0.469091885756179,  0.314922193328581 ]
    mass: 12.010700
  - symbol: C  # 69
    coordinates: [  0.474851018230834,  0.469090281833986,  0.314921681386960 ]
    mass: 12.010700
  - symbol: C  # 70
    coordinates: [  0.525148978599450,  0.530909731719545,  0.685078334015771 ]
    mass: 12.010700
  - symbol: C  # 71
    coordinates: [  0.525149049741969,  0.030909177143281,  0.814921894037591 ]
    mass: 12.010700
  - symbol: C  # 72
    coordinates: [  0.474850932296305,  0.969091013329882,  0.185078023637470 ]
    mass: 12.010700
  - symbol: C  # 73
    coordinates: [  0.102424436201695,  0.876957820604473,  0.065629096718460 ]
    mass: 12.010700
  - symbol: C  # 74
    coordinates: [  0.897575564009619,  0.123042186685485,  0.934370926598087 ]
    mass: 12.010700
  - symbol: C  # 75
    coordinates: [  0.897575548161038,  0.623042171105504,  0.565629076854249 ]
    mass: 12.010700
  - symbol: C  # 76
    coordinates: [  0.102424453846449,  0.376957898372790,  0.434370900904739 ]
    mass: 12.010700
  - symbol: C  # 77
    coordinates: [  0.897575555909233,  0.376957807445705,  0.434370940872170 ]
    mass: 12.010700
  - symbol: C  # 78
    coordinates: [  0.102424444196424,  0.623042174395196,  0.565629078580417 ]
    mass: 12.010700
  - symbol: C  # 79
    coordinates: [  0.102424462756873,  0.123042083954985,  0.934370910664228 ]
    mass: 12.010700
  - symbol: C  # 80
    coordinates: [  0.897575540412843,  0.876957805735065,  0.065629050092004 ]
    mass: 12.010700
  - symbol: C  # 81
    coordinates: [  0.602424451486771,  0.376957879555752,  0.065629058576784 ]
    mass: 12.010700
  - symbol: C  # 82
    coordinates: [  0.397575547456657,  0.623042122944414,  0.934370947843233 ]
    mass: 12.010700
  - symbol: C  # 83
    coordinates: [  0.397575543582559,  0.123042021727173,  0.565629011127079 ]
    mass: 12.010700
  - symbol: C  # 84
    coordinates: [  0.602424451838962,  0.876958023249495,  0.434370981569902 ]
    mass: 12.010700
  - symbol: C  # 85
    coordinates: [  0.397575558726759,  0.876957760995255,  0.434370865319120 ]
    mass: 12.010700
  - symbol: C  # 86
    coordinates: [  0.602424437046953,  0.123042234201795,  0.565629149220526 ]
    mass: 12.010700
  - symbol: C  # 87
    coordinates: [  0.602424443738576,  0.623042174132020,  0.934370895394280 ]
    mass: 12.010700
  - symbol: C  # 88
    coordinates: [  0.397575555557043,  0.376957806393004,  0.065629095881933 ]
    mass: 12.010700
  - symbol: C  # 89
    coordinates: [  0.133998757823432,  0.760132915896518,  0.025178976964852 ]
    mass: 12.010700
  - symbol: C  # 90
    coordinates: [  0.866001250136078,  0.239867081208553,  0.974821067922158 ]
    mass: 12.010700
  - symbol: C  # 91
    coordinates: [  0.866001228652445,  0.739867027915544,  0.525178942766806 ]
    mass: 12.010700
  - symbol: C  # 92
    coordinates: [  0.133998775644281,  0.260133013139811,  0.474821011821695 ]
    mass: 12.010700
  - symbol: C  # 93
    coordinates: [  0.866001241683501,  0.260132913264765,  0.474821085648576 ]
    mass: 12.010700
  - symbol: C  # 94
    coordinates: [  0.133998765923818,  0.739867063444217,  0.525178948343657 ]
    mass: 12.010700
  - symbol: C  # 95
    coordinates: [  0.133998783498133,  0.239866963963933,  0.974821020784491 ]
    mass: 12.010700
  - symbol: C  # 96
    coordinates: [  0.866001218086725,  0.760132954978058,  0.025178925359065 ]
    mass: 12.010700
  - symbol: C  # 97
    coordinates: [  0.633998770290982,  0.260132981032418,  0.025178929880298 ]
    mass: 12.010700
  - symbol: C  # 98
    coordinates: [  0.366001226539301,  0.739867006993104,  0.974821077216909 ]
    mass: 12.010700
  - symbol: C  # 99
    coordinates: [  0.366001226891492,  0.239867037521444,  0.525178957439235 ]
    mass: 12.010700
  - symbol: C  # 100
    coordinates: [  0.633998775221652,  0.760133032877963,  0.474821035191355 ]
    mass: 12.010700
  - symbol: C  # 101
    coordinates: [  0.366001238161594,  0.760132741806022,  0.474820875454416 ]
    mass: 12.010700
  - symbol: C  # 102
    coordinates: [  0.633998764303741,  0.239867255167462,  0.525179159400902 ]
    mass: 12.010700
  - symbol: C  # 103
    coordinates: [  0.633998760077452,  0.739867095025259,  0.974821010161918 ]
    mass: 12.010700
  - symbol: C  # 104
    coordinates: [  0.366001235696259,  0.260132896947893,  0.025178986412303 ]
    mass: 12.010700
  - symbol: C  # 105
    coordinates: [  0.181483200380760,  0.763171037443902,  0.048112475208583 ]
    mass: 12.010700
  - symbol: C  # 106
    coordinates: [  0.818516802788956,  0.236829012164652,  0.951887567826115 ]
    mass: 12.010700
  - symbol: C  # 107
    coordinates: [  0.818516772148365,  0.736829038745363,  0.548112571395980 ]
    mass: 12.010700
  - symbol: C  # 108
    coordinates: [  0.181483230422626,  0.263171006520798,  0.451887372038819 ]
    mass: 12.010700
  - symbol: C  # 109
    coordinates: [  0.818516792223235,  0.263170966123382,  0.451887573270184 ]
    mass: 12.010700
  - symbol: C  # 110
    coordinates: [  0.181483211439548,  0.736828975188515,  0.548112467361157 ]
    mass: 12.010700
  - symbol: C  # 111
    coordinates: [  0.181483241234881,  0.236828995979368,  0.951887362677677 ]
    mass: 12.010700
  - symbol: C  # 112
    coordinates: [  0.818516759469501,  0.763170950201273,  0.048112574556196 ]
    mass: 12.010700
  - symbol: C  # 113
    coordinates: [  0.681483220807820,  0.263171040338831,  0.048112477406128 ]
    mass: 12.010700
  - symbol: C  # 114
    coordinates: [  0.318516774472824,  0.736828938607141,  0.951887524008002 ]
    mass: 12.010700
  - symbol: C  # 115
    coordinates: [  0.318516767851639,  0.236828675694962,  0.548112337035467 ]
    mass: 12.010700
  - symbol: C  # 116
    coordinates: [  0.681483232077923,  0.763171404178758,  0.451887639860437 ]
    mass: 12.010700
  - symbol: C  # 117
    coordinates: [  0.318516786940375,  0.763170685710042,  0.451887160848793 ]
    mass: 12.010700
  - symbol: C  # 118
    coordinates: [  0.681483215524960,  0.236829255996617,  0.548112872811485 ]
    mass: 12.010700
  - symbol: C  # 119
    coordinates: [  0.681483211298672,  0.736829099670457,  0.951887417118363 ]
    mass: 12.010700
  - symbol: C  # 120
    coordinates: [  0.318516783735439,  0.263170912698785,  0.048112583997007 ]
    mass: 12.010700
  - symbol: C  # 121
    coordinates: [  0.197808936162584,  0.880232185850456,  0.112310413041743 ]
    mass: 12.010700
  - symbol: C  # 122
    coordinates: [  0.802191064577016,  0.119767917959063,  0.887689609929571 ]
    mass: 12.010700
  - symbol: C  # 123
    coordinates: [  0.802191086412839,  0.619768095089235,  0.612310614671454 ]
    mass: 12.010700
  - symbol: C  # 124
    coordinates: [  0.197808912953218,  0.380231977678751,  0.387689338722008 ]
    mass: 12.010700
  - symbol: C  # 125
    coordinates: [  0.802191059294155,  0.380232021629035,  0.387689598377523 ]
    mass: 12.010700
  - symbol: C  # 126
    coordinates: [  0.197808938733576,  0.619767892181037,  0.612310436809750 ]
    mass: 12.010700
  - symbol: C  # 127
    coordinates: [  0.197808914925486,  0.119768061534377,  0.887689306522334 ]
    mass: 12.010700
  - symbol: C  # 128
    coordinates: [  0.802191086412839,  0.880231877540529,  0.112310631866744 ]
    mass: 12.010700
  - symbol: C  # 129
    coordinates: [  0.697808938240509,  0.380232094133845,  0.112310456992638 ]
    mass: 12.010700
  - symbol: C  # 130
    coordinates: [  0.302191062780843,  0.619767889154520,  0.887689539555026 ]
    mass: 12.010700
  - symbol: C  # 131
    coordinates: [  0.302191011642755,  0.119767153974170,  0.612310081949425 ]
    mass: 12.010700
  - symbol: C  # 132
    coordinates: [  0.697808979446820,  0.880232908135214,  0.387689878946229 ]
    mass: 12.010700
  - symbol: C  # 133
    coordinates: [  0.302191121350155,  0.880231745031738,  0.387689159532482 ]
    mass: 12.010700
  - symbol: C  # 134
    coordinates: [  0.697808874493994,  0.119768140460665,  0.612310853944907 ]
    mass: 12.010700
  - symbol: C  # 135
    coordinates: [  0.697808917461259,  0.619768093641770,  0.887689412084152 ]
    mass: 12.010700
  - symbol: C  # 136
    coordinates: [  0.302191083736190,  0.380231930438775,  0.112310587783066 ]
    mass: 12.010700
  - symbol: C  # 137
    coordinates: [  0.166508593259162,  0.995668315533069,  0.153300999868060 ]
    mass: 12.010700
  - symbol: C  # 138
    coordinates: [  0.833491396985156,  0.004331812018814,  0.846699000065549 ]
    mass: 12.010700
  - symbol: C  # 139
    coordinates: [  0.833491416355644,  0.504331991724156,  0.653301184435264 ]
    mass: 12.010700
  - symbol: C  # 140
    coordinates: [  0.166508580756392,  0.495668098544990,  0.346698787547700 ]
    mass: 12.010700
  - symbol: C  # 141
    coordinates: [  0.833491389589151,  0.495668128152217,  0.346698988513501 ]
    mass: 12.010700
  - symbol: C  # 142
    coordinates: [  0.166508598858994,  0.504331780920698,  0.653301031337432 ]
    mass: 12.010700
  - symbol: C  # 143
    coordinates: [  0.166508584172642,  0.004331949097644,  0.846698757074195 ]
    mass: 12.010700
  - symbol: C  # 144
    coordinates: [  0.833491419525360,  0.995667983142598,  0.153301188485120 ]
    mass: 12.010700
  - symbol: C  # 145
    coordinates: [  0.666508606184560,  0.495668226053449,  0.153301035586462 ]
    mass: 12.010700
  - symbol: C  # 146
    coordinates: [  0.333491395470736,  0.504331773683376,  0.846698960894811 ]
    mass: 12.010700
  - symbol: C  # 147
    coordinates: [  0.333491348523717,  0.004330932427567,  0.653300611081894 ]
    mass: 12.010700
  - symbol: C  # 148
    coordinates: [  0.666508635768578,  0.995669103348491,  0.346699349017067 ]
    mass: 12.010700
  - symbol: C  # 149
    coordinates: [  0.333491450236389,  0.995668022224138,  0.346698721355793 ]
    mass: 12.010700
  - symbol: C  # 150
    coordinates: [  0.666508538563947,  0.004331863859095,  0.653301274527960 ]
    mass: 12.010700
  - symbol: C  # 151
    coordinates: [  0.666508589631598,  0.504331938167972,  0.846698851349529 ]
    mass: 12.010700
  - symbol: C  # 152
    coordinates: [  0.333491414136843,  0.495668078148900,  0.153301141413844 ]
    mass: 12.010700
  - symbol: C  # 153
    coordinates: [  0.119042256860490,  0.994017887491910,  0.130347492488000 ]
    mass: 12.010700
  - symbol: C  # 154
    coordinates: [  0.880957738208840,  0.005982184065469,  0.869652503794099 ]
    mass: 12.010700
  - symbol: C  # 155
    coordinates: [  0.880957760396854,  0.505982269623776,  0.630347561202768 ]
    mass: 12.010700
  - symbol: C  # 156
    coordinates: [  0.119042239462270,  0.494017821829659,  0.369652423328110 ]
    mass: 12.010700
  - symbol: C  # 157
    coordinates: [  0.880957730812836,  0.494017788011626,  0.369652509503732 ]
    mass: 12.010700
  - symbol: C  # 158
    coordinates: [  0.119042261791159,  0.505982159879654,  0.630347500388539 ]
    mass: 12.010700
  - symbol: C  # 159
    coordinates: [  0.119042242244576,  0.005982190985665,  0.869652416157873 ]
    mass: 12.010700
  - symbol: C  # 160
    coordinates: [  0.880957762862189,  0.994017709453783,  0.130347537368371 ]
    mass: 12.010700
  - symbol: C  # 161
    coordinates: [  0.619042266017448,  0.494017883544280,  0.130347483923551 ]
    mass: 12.010700
  - symbol: C  # 162
    coordinates: [  0.380957737856650,  0.505982122640341,  0.869652517072315 ]
    mass: 12.010700
  - symbol: C  # 163
    coordinates: [  0.380957702637581,  0.005981616518607,  0.630347233098049 ]
    mass: 12.010700
  - symbol: C  # 164
    coordinates: [  0.619042283979173,  0.994018410947689,  0.369652743399508 ]
    mass: 12.010700
  - symbol: C  # 165
    coordinates: [  0.380957786811156,  0.994017789327503,  0.369652430033609 ]
    mass: 12.010700
  - symbol: C  # 166
    coordinates: [  0.619042202270933,  0.005982150543508,  0.630347565650971 ]
    mass: 12.010700
  - symbol: C  # 167
    coordinates: [  0.619042250168866,  0.505982215014890,  0.869652447361681 ]
    mass: 12.010700
  - symbol: C  # 168
    coordinates: [  0.380957754761803,  0.494017781695418,  0.130347541219053 ]
    mass: 12.010700
  - symbol: H  # 169
    coordinates: [  0.087760666209547,  0.595394036942835,  0.140988743610754 ]
    mass: 1.007940
  - symbol: H  # 170
    coordinates: [  0.912239325619629,  0.404606062405861,  0.859011382598690 ]
    mass: 1.007940
  - symbol: H  # 171
    coordinates: [  0.912239374221945,  0.904606084249415,  0.640988656837612 ]
    mass: 1.007940
  - symbol: H  # 172
    coordinates: [  0.087760618910337,  0.095393990847672,  0.359011312688882 ]
    mass: 1.007940
  - symbol: H  # 173
    coordinates: [  0.912239323506485,  0.095393948989632,  0.359011375760409 ]
    mass: 1.007940
  - symbol: H  # 174
    coordinates: [  0.087760669766673,  0.904606009770790,  0.640988681269530 ]
    mass: 1.007940
  - symbol: H  # 175
    coordinates: [  0.087760622185710,  0.404605987532473,  0.859011323510628 ]
    mass: 1.007940
  - symbol: H  # 176
    coordinates: [  0.912239369643466,  0.595393879169210,  0.140988629285314 ]
    mass: 1.007940
  - symbol: H  # 177
    coordinates: [  0.587760660644934,  0.095394050864811,  0.140988691493756 ]
    mass: 1.007940
  - symbol: H  # 178
    coordinates: [  0.412239328789345,  0.904605992138042,  0.859011348739239 ]
    mass: 1.007940
  - symbol: H  # 179
    coordinates: [  0.412239280539221,  0.404605811862924,  0.640988744938576 ]
    mass: 1.007940
  - symbol: H  # 180
    coordinates: [  0.587760716291063,  0.595394211822858,  0.359011264754522 ]
    mass: 1.007940
  - symbol: H  # 181
    coordinates: [  0.412239421063307,  0.595393839692907,  0.359011315742872 ]
    mass: 1.007940
  - symbol: H  # 182
    coordinates: [  0.587760575766977,  0.404606174781737,  0.640988703842497 ]
    mass: 1.007940
  - symbol: H  # 183
    coordinates: [  0.587760621903958,  0.904606040167544,  0.859011300937661 ]
    mass: 1.007940
  - symbol: H  # 184
    coordinates: [  0.412239367530322,  0.095393905328841,  0.140988666729883 ]
    mass: 1.007940
  - symbol: H  # 185
    coordinates: [  0.043746561430210,  0.367144721055982,  0.221814885812477 ]
    mass: 1.007940
  - symbol: H  # 186
    coordinates: [  0.956253442267792,  0.632855437112406,  0.778185204346610 ]
    mass: 1.007940
  - symbol: H  # 187
    coordinates: [  0.956253419023207,  0.132855060376887,  0.721814712332584 ]
    mass: 1.007940
  - symbol: H  # 188
    coordinates: [  0.043746584076071,  0.867145041208800,  0.278185291318925 ]
    mass: 1.007940
  - symbol: H  # 189
    coordinates: [  0.956253426419211,  0.867144636050343,  0.278185205143303 ]
    mass: 1.007940
  - symbol: H  # 190
    coordinates: [  0.043746576856162,  0.132855290918497,  0.721814813910937 ]
    mass: 1.007940
  - symbol: H  # 191
    coordinates: [  0.043746602742178,  0.632854904313902,  0.778185327170109 ]
    mass: 1.007940
  - symbol: H  # 192
    coordinates: [  0.956253401061481,  0.367144984231336,  0.221814707552426 ]
    mass: 1.007940
  - symbol: H  # 193
    coordinates: [  0.543746603516997,  0.867144966993350,  0.221814834359390 ]
    mass: 1.007940
  - symbol: H  # 194
    coordinates: [  0.456253395074240,  0.132855103406057,  0.778185171151070 ]
    mass: 1.007940
  - symbol: H  # 195
    coordinates: [  0.456253361968315,  0.632855125512787,  0.721814957979582 ]
    mass: 1.007940
  - symbol: H  # 196
    coordinates: [  0.543746634157588,  0.367144892777900,  0.278185055232244 ]
    mass: 1.007940
  - symbol: H  # 197
    coordinates: [  0.456253476078099,  0.367145068447449,  0.278185226388449 ]
    mass: 1.007940
  - symbol: H  # 198
    coordinates: [  0.543746519695613,  0.632854943658618,  0.721814794657524 ]
    mass: 1.007940
  - symbol: H  # 199
    coordinates: [  0.543746552801538,  0.132855057745133,  0.778185201027056 ]
    mass: 1.007940
  - symbol: H  # 200
    coordinates: [  0.456253445789699,  0.867144859617806,  0.221814799371291 ]
    mass: 1.007940
  - symbol: H  # 201
    coordinates: [  0.121385291615125,  0.668787016320775,  0.974849067032472 ]
    mass: 1.007940
  - symbol: H  # 202
    coordinates: [  0.878614717788366,  0.331212938018301,  0.025150993356855 ]
    mass: 1.007940
  - symbol: H  # 203
    coordinates: [  0.878614652280898,  0.831212773007355,  0.474848955362675 ]
    mass: 1.007940
  - symbol: H  # 204
    coordinates: [  0.121385353600687,  0.168787241467290,  0.525150987939343 ]
    mass: 1.007940
  - symbol: H  # 205
    coordinates: [  0.878614705813883,  0.168787075666817,  0.525151018014502 ]
    mass: 1.007940
  - symbol: H  # 206
    coordinates: [  0.121385306019724,  0.831212920648728,  0.474849018566983 ]
    mass: 1.007940
  - symbol: H  # 207
    coordinates: [  0.121385367547438,  0.331212716951004,  0.025151007996088 ]
    mass: 1.007940
  - symbol: H  # 208
    coordinates: [  0.878614631853838,  0.668787213044352,  0.974848930930757 ]
    mass: 1.007940
  - symbol: H  # 209
    coordinates: [  0.621385318839465,  0.168787149882267,  0.974848992010551 ]
    mass: 1.007940
  - symbol: H  # 210
    coordinates: [  0.378614673060149,  0.831212832484985,  0.025151020882597 ]
    mass: 1.007940
  - symbol: H  # 211
    coordinates: [  0.378614706166074,  0.331213178297399,  0.474849172527899 ]
    mass: 1.007940
  - symbol: H  # 212
    coordinates: [  0.621385302990884,  0.668786905523951,  0.525150832916170 ]
    mass: 1.007940
  - symbol: H  # 213
    coordinates: [  0.378614645237084,  0.668786930394022,  0.525150843140396 ]
    mass: 1.007940
  - symbol: H  # 214
    coordinates: [  0.621385362863302,  0.331213110266570,  0.474849206320959 ]
    mass: 1.007940
  - symbol: H  # 215
    coordinates: [  0.621385317430703,  0.831212892225790,  0.025150965771361 ]
    mass: 1.007940
  - symbol: H  # 216
    coordinates: [  0.378614673060149,  0.168787093167978,  0.974849029853467 ]
    mass: 1.007940
  - symbol: H  # 217
    coordinates: [  0.205985240674263,  0.673305435938775,  0.015942953612929 ]
    mass: 1.007940
  - symbol: H  # 218
    coordinates: [  0.794014769961895,  0.326694603669116,  0.984057107546535 ]
    mass: 1.007940
  - symbol: H  # 219
    coordinates: [  0.794014739673496,  0.826694618012172,  0.515943051128147 ]
    mass: 1.007940
  - symbol: H  # 220
    coordinates: [  0.205985263954068,  0.173305406726311,  0.484056874447451 ]
    mass: 1.007940
  - symbol: H  # 221
    coordinates: [  0.794014757987412,  0.173305392778017,  0.484057123214830 ]
    mass: 1.007940
  - symbol: H  # 222
    coordinates: [  0.205985252719185,  0.826694546954827,  0.515942930229990 ]
    mass: 1.007940
  - symbol: H  # 223
    coordinates: [  0.205985276280742,  0.326694573798713,  0.984056872522110 ]
    mass: 1.007940
  - symbol: H  # 224
    coordinates: [  0.794014721359580,  0.673305395146596,  0.015943053511587 ]
    mass: 1.007940
  - symbol: H  # 225
    coordinates: [  0.705985255043644,  0.173305446071026,  0.015942950552300 ]
    mass: 1.007940
  - symbol: H  # 226
    coordinates: [  0.294014739215648,  0.826694520900467,  0.984057053769759 ]
    mass: 1.007940
  - symbol: H  # 227
    coordinates: [  0.294014732242272,  0.326694351415539,  0.515942857531757 ]
    mass: 1.007940
  - symbol: H  # 228
    coordinates: [  0.705985272653178,  0.673305746222517,  0.484057119231365 ]
    mass: 1.007940
  - symbol: H  # 229
    coordinates: [  0.294014750309655,  0.673304998541338,  0.484056591555058 ]
    mass: 1.007940
  - symbol: H  # 230
    coordinates: [  0.705985257508978,  0.326694943560085,  0.515943456445693 ]
    mass: 1.007940
  - symbol: H  # 231
    coordinates: [  0.705985243773541,  0.826694706965442,  0.984056935593636 ]
    mass: 1.007940
  - symbol: H  # 232
    coordinates: [  0.294014748619140,  0.173305315141288,  0.015943067865339 ]
    mass: 1.007940
  - symbol: H  # 233
    coordinates: [  0.234933996682152,  0.881485324377743,  0.130337427401047 ]
    mass: 1.007940
  - symbol: H  # 234
    coordinates: [  0.765066000007255,  0.118514810999659,  0.869662602541331 ]
    mass: 1.007940
  - symbol: H  # 235
    coordinates: [  0.765066023251841,  0.618515107887776,  0.630337734393402 ]
    mass: 1.007940
  - symbol: H  # 236
    coordinates: [  0.234933975550711,  0.381484974749285,  0.369662214618248 ]
    mass: 1.007940
  - symbol: H  # 237
    coordinates: [  0.765065993315632,  0.381485100547105,  0.369662580897838 ]
    mass: 1.007940
  - symbol: H  # 238
    coordinates: [  0.234934001084536,  0.618514790761475,  0.630337464580052 ]
    mass: 1.007940
  - symbol: H  # 239
    coordinates: [  0.234933977311664,  0.118515094478991,  0.869662165024111 ]
    mass: 1.007940
  - symbol: H  # 240
    coordinates: [  0.765066024660603,  0.881484853162272,  0.130337774759179 ]
    mass: 1.007940
  - symbol: H  # 241
    coordinates: [  0.734934002105889,  0.381485161077436,  0.130337511717719 ]
    mass: 1.007940
  - symbol: H  # 242
    coordinates: [  0.265065997612358,  0.618514814973607,  0.869662482373475 ]
    mass: 1.007940
  - symbol: H  # 243
    coordinates: [  0.265065935274606,  0.118513781076071,  0.630336984970887 ]
    mass: 1.007940
  - symbol: H  # 244
    coordinates: [  0.734934054230111,  0.881486288520651,  0.369662963310461 ]
    mass: 1.007940
  - symbol: H  # 245