phonopy:
  version: 2.7.0
  calculator: dftbp
  frequency_unit_conversion_factor: 154.107943
  symmetry_tolerance: 1.00000e-03

physical_unit:
  atomic_mass: "AMU"

space_group:
  type: "Cmce"
  number: 64
  Hall_symbol: "-C 2bc 2"

supercell_matrix:
- [   2,   0,   0 ]
- [   0,   2,   0 ]
- [   0,   0,   2 ]

primitive_cell:
  lattice:
  - [    50.003241163529225,     0.000000000000000,     0.000000000000000 ] # a
  - [     0.000000000000000,    13.383225917938107,     0.000000000000000 ] # b
  - [     0.000000000000000,     0.000000000000000,    26.525665769882664 ] # c
  points:
  - symbol: C  # 1
    coordinates: [  0.027750237292628,  0.000000242525732,  0.999999911309667 ]
    mass: 12.010700
  - symbol: C  # 2
    coordinates: [  0.972249751645633,  0.999999764582105,  0.000000085963656 ]
    mass: 12.010700
  - symbol: C  # 3
    coordinates: [  0.972249751645633,  0.499999874472238,  0.499999965305430 ]
    mass: 12.010700
  - symbol: C  # 4
    coordinates: [  0.027750238014457,  0.500000137106251,  0.500000031987396 ]
    mass: 12.010700
  - symbol: C  # 5
    coordinates: [  0.527750242685556,  0.499999334801700,  0.000000223943988 ]
    mass: 12.010700
  - symbol: C  # 6
    coordinates: [  0.472249760715730,  0.500000681295224,  0.999999777378063 ]
    mass: 12.010700
  - symbol: C  # 7
    coordinates: [  0.472249770163747,  0.999999637995932,  0.499999887367321 ]
    mass: 12.010700
  - symbol: C  # 8
    coordinates: [  0.527750255156940,  0.000000307888420,  0.500000117619578 ]
    mass: 12.010700
  - symbol: C  # 9
    coordinates: [  0.054095976423432,  0.854048231805249,  0.050305989924680 ]
    mass: 12.010700
  - symbol: C  # 10
    coordinates: [  0.945904029698883,  0.145951697029405,  0.949694023960272 ]
    mass: 12.010700
  - symbol: C  # 11
    coordinates: [  0.945904031966407,  0.645951535636568,  0.550305961648962 ]
    mass: 12.010700
  - symbol: C  # 12
    coordinates: [  0.054095977406026,  0.354048398140125,  0.449694017904752 ]
    mass: 12.010700
  - symbol: C  # 13
    coordinates: [  0.945904048972839,  0.354048581842733,  0.449694110803558 ]
    mass: 12.010700
  - symbol: C  # 14
    coordinates: [  0.054095961079852,  0.645951495676662,  0.550305900880034 ]
    mass: 12.010700
  - symbol: C  # 15
    coordinates: [  0.054095959341417,  0.145951329200585,  0.949694105887900 ]
    mass: 12.010700
  - symbol: C  # 16
    coordinates: [  0.945904048972839,  0.854048731798283,  0.050305878467485 ]
    mass: 12.010700
  - symbol: C  # 17
    coordinates: [  0.554095930241523,  0.354048985677829,  0.050305782868629 ]
    mass: 12.010700
  - symbol: C  # 18
    coordinates: [  0.445904068246794,  0.645951036208339,  0.949694219874166 ]
    mass: 12.010700
  - symbol: C  # 19
    coordinates: [  0.445904021006707,  0.145951875931177,  0.550306044716453 ]
    mass: 12.010700
  - symbol: C  # 20
    coordinates: [  0.554095967277751,  0.854048232793657,  0.449694017619786 ]
    mass: 12.010700
  - symbol: C  # 21
    coordinates: [  0.445904037257297,  0.854048709912115,  0.449694128898878 ]
    mass: 12.010700
  - symbol: C  # 22
    coordinates: [  0.554095945358351,  0.145951152699232,  0.550305834910483 ]
    mass: 12.010700
  - symbol: C  # 23
    coordinates: [  0.554095993732200,  0.645952047914096,  0.949693912111249 ]
    mass: 12.010700
  - symbol: C  # 24
    coordinates: [  0.445904006267800,  0.354047953639117,  0.050306089933380 ]
    mass: 12.010700
  - symbol: C  # 25
    coordinates: [  0.027328816469222,  0.698934064442266,  0.088565734572762 ]
    mass: 12.010700
  - symbol: C  # 26
    coordinates: [  0.972671180087921,  0.301065717825665,  0.911434319499473 ]
    mass: 12.010700
  - symbol: C  # 27
    coordinates: [  0.972671166104855,  0.801065559962855,  0.588565663117622 ]
    mass: 12.010700
  - symbol: C  # 28
    coordinates: [  0.027328830410716,  0.198934208326169,  0.411434278250693 ]
    mass: 12.010700
  - symbol: C  # 29
    coordinates: [  0.972671176308714,  0.198934582509038,  0.411434395656546 ]
    mass: 12.010700
  - symbol: C  # 30
    coordinates: [  0.027328818392838,  0.801065646236716,  0.588565657774515 ]
    mass: 12.010700
  - symbol: C  # 31
    coordinates: [  0.027328831903503,  0.301065498399183,  0.911434355120181 ]
    mass: 12.010700
  - symbol: C  # 32
    coordinates: [  0.972671160813965,  0.698934699847138,  0.088565598287933 ]
    mass: 12.010700
  - symbol: C  # 33
    coordinates: [  0.527328838052273,  0.198934854038720,  0.088565549273839 ]
    mass: 12.010700
  - symbol: C  # 34
    coordinates: [  0.472671163081489,  0.801065188745208,  0.911434448446436 ]
    mass: 12.010700
  - symbol: C  # 35
    coordinates: [  0.472671192937225,  0.301066157667037,  0.588565804745557 ]
    mass: 12.010700
  - symbol: C  # 36
    coordinates: [  0.527328814621190,  0.698934289516791,  0.411434341228105 ]
    mass: 12.010700
  - symbol: C  # 37
    coordinates: [  0.472671163459410,  0.698934437354325,  0.411434342866657 ]
    mass: 12.010700
  - symbol: C  # 38
    coordinates: [  0.527328854302863,  0.301065122239498,  0.588565547991494 ]
    mass: 12.010700
  - symbol: C  # 39
    coordinates: [  0.527328822935445,  0.801066214712275,  0.911434196251823 ]
    mass: 12.010700
  - symbol: C  # 40
    coordinates: [  0.472671177064555,  0.198933763542759,  0.088565817141563 ]
    mass: 12.010700
  - symbol: C  # 41
    coordinates: [  0.052985608069266,  0.542256994540147,  0.133411095547331 ]
    mass: 12.010700
  - symbol: C  # 42
    coordinates: [  0.947014624881053,  0.457744218094751,  0.866588559145526 ]
    mass: 12.010700
  - symbol: C  # 43
    coordinates: [  0.947014757909140,  0.957744943444712,  0.633411705373852 ]
    mass: 12.010700
  - symbol: C  # 44
    coordinates: [  0.052985502478223,  0.042256401481480,  0.366588682036968 ]
    mass: 12.010700
  - symbol: C  # 45
    coordinates: [  0.947015020564026,  0.042253701872101,  0.366587983229919 ]
    mass: 12.010700
  - symbol: C  # 46
    coordinates: [  0.052985241599564,  0.957744951351973,  0.633411633633746 ]
    mass: 12.010700
  - symbol: C  # 47
    coordinates: [  0.052985108004596,  0.457745681926374,  0.866588105337706 ]
    mass: 12.010700
  - symbol: C  # 48
    coordinates: [  0.947015127137663,  0.542253108121549,  0.133412246594889 ]
    mass: 12.010700
  - symbol: C  # 49
    coordinates: [  0.552984521396086,  0.042251281643185,  0.133412724126100 ]
    mass: 12.010700
  - symbol: C  # 50
    coordinates: [  0.447015439300161,  0.957748537294667,  0.866587334505585 ]
    mass: 12.010700
  - symbol: C  # 51
    coordinates: [  0.447014159282751,  0.457741706974697,  0.633410756081984 ]
    mass: 12.010700
  - symbol: C  # 52
    coordinates: [  0.552985322587970,  0.542255518282828,  0.366588519962747 ]
    mass: 12.010700
  - symbol: C  # 53
    coordinates: [  0.447014839162090,  0.542254562069097,  0.366588152428282 ]
    mass: 12.010700
  - symbol: C  # 54
    coordinates: [  0.552984635150217,  0.457748184433162,  0.633412582284441 ]
    mass: 12.010700
  - symbol: C  # 55
    coordinates: [  0.552985912900102,  0.957741403957174,  0.866589340663859 ]
    mass: 12.010700
  - symbol: C  # 56
    coordinates: [  0.447014050441590,  0.042258809072899,  0.133410615665154 ]
    mass: 12.010700
  - symbol: C  # 57
    coordinates: [  0.026955468685612,  0.396376874033936,  0.173090623261540 ]
    mass: 12.010700
  - symbol: C  # 58
    coordinates: [  0.973044390761901,  0.603621618926910,  0.826909793358260 ]
    mass: 12.010700
  - symbol: C  # 59
    coordinates: [  0.973044272472722,  0.103620578684414,  0.673089961998717 ]
    mass: 12.010700
  - symbol: C  # 60
    coordinates: [  0.026955574934237,  0.896377743550202,  0.326909589251604 ]
    mass: 12.010700
  - symbol: C  # 61
    coordinates: [  0.973044163631560,  0.896380915208920,  0.326910496154829 ]
    mass: 12.010700
  - symbol: C  # 62
    coordinates: [  0.026955687108659,  0.103620745654694,  0.673089963993477 ]
    mass: 12.010700
  - symbol: C  # 63
    coordinates: [  0.026955803942844,  0.603619718219137,  0.826910293473000 ]
    mass: 12.010700
  - symbol: C  # 64
    coordinates: [  0.973044061970892,  0.396381785007589,  0.173089304511690 ]
    mass: 12.010700
  - symbol: C  # 65
    coordinates: [  0.526956107715502,  0.896383914602317,  0.173088700526965 ]
    mass: 12.010700
  - symbol: C  # 66
    coordinates: [  0.473043908157167,  0.103616328842469,  0.826911245258317 ]
    mass: 12.010700
  - symbol: C  # 67
    coordinates: [  0.473044698389350,  0.603624716737461,  0.673091074504669 ]
    mass: 12.010700
  - symbol: C  # 68
    coordinates: [  0.526955618686117,  0.396378618432110,  0.326909873647336 ]
    mass: 12.010700
  - symbol: C  # 69
    coordinates: [  0.473044208226203,  0.396380032419752,  0.326910206558473 ]
    mass: 12.010700
  - symbol: C  # 70
    coordinates: [  0.526956090709071,  0.603616647236791,  0.673088852912354 ]
    mass: 12.010700
  - symbol: C  # 71
    coordinates: [  0.526955291406791,  0.103625092967746,  0.826908828037074 ]
    mass: 12.010700
  - symbol: C  # 72
    coordinates: [  0.473044726733403,  0.896374695301231,  0.173091247550068 ]
    mass: 12.010700
  - symbol: C  # 73
    coordinates: [  0.109981197311430,  0.865960157335136,  0.074121151786986 ]
    mass: 12.010700
  - symbol: C  # 74
    coordinates: [  0.890018804427005,  0.134039834192799,  0.925878845719564 ]
    mass: 12.010700
  - symbol: C  # 75
    coordinates: [  0.890018799136116,  0.634039756391002,  0.574121176365275 ]
    mass: 12.010700
  - symbol: C  # 76
    coordinates: [  0.109981204718676,  0.365960235419335,  0.425878820500103 ]
    mass: 12.010700
  - symbol: C  # 77
    coordinates: [  0.890018803293243,  0.365960163971587,  0.425878846859427 ]
    mass: 12.010700
  - symbol: C  # 78
    coordinates: [  0.109981201052845,  0.634039857773380,  0.574121153354298 ]
    mass: 12.010700
  - symbol: C  # 79
    coordinates: [  0.109981206872824,  0.134039776667478,  0.925878820785068 ]
    mass: 12.010700
  - symbol: C  # 80
    coordinates: [  0.890018796112750,  0.865960241208580,  0.074121175866585 ]
    mass: 12.010700
  - symbol: C  # 81
    coordinates: [  0.609981205021012,  0.365960209297135,  0.074121169882306 ]
    mass: 12.010700
  - symbol: C  # 82
    coordinates: [  0.390018793845226,  0.634039808494202,  0.925878837883008 ]
    mass: 12.010700
  - symbol: C  # 83
    coordinates: [  0.390018807450371,  0.134039844613439,  0.574121168172512 ]
    mass: 12.010700
  - symbol: C  # 84
    coordinates: [  0.609981189904184,  0.865960127824110,  0.425878843511080 ]
    mass: 12.010700
  - symbol: C  # 85
    coordinates: [  0.390018787042653,  0.865960224829254,  0.425878833466040 ]
    mass: 12.010700
  - symbol: C  # 86
    coordinates: [  0.609981209178140,  0.134039735620323,  0.574121153140573 ]
    mass: 12.010700
  - symbol: C  # 87
    coordinates: [  0.609981195195074,  0.634039812165430,  0.925878846431978 ]
    mass: 12.010700
  - symbol: C  # 88
    coordinates: [  0.390018803671164,  0.365960197012640,  0.074121144306638 ]
    mass: 12.010700
  - symbol: C  # 89
    coordinates: [  0.145359797814844,  0.744700070526016,  0.031254412226673 ]
    mass: 12.010700
  - symbol: C  # 90
    coordinates: [  0.854640198783869,  0.255299931168398,  0.968745585080402 ]
    mass: 12.010700
  - symbol: C  # 91
    coordinates: [  0.854640189335852,  0.755299825691189,  0.531254425392087 ]
    mass: 12.010700
  - symbol: C  # 92
    coordinates: [  0.145359807791951,  0.244700177132833,  0.468745573183085 ]
    mass: 12.010700
  - symbol: C  # 93
    coordinates: [  0.854640189713773,  0.244700070243613,  0.468745577457570 ]
    mass: 12.010700
  - symbol: C  # 94
    coordinates: [  0.145359810588564,  0.755299921425523,  0.531254419692773 ]
    mass: 12.010700
  - symbol: C  # 95
    coordinates: [  0.145359818638275,  0.255299821313955,  0.968745567270048 ]
    mass: 12.010700
  - symbol: C  # 96
    coordinates: [  0.854640177998231,  0.744700180239257,  0.031254430215130 ]
    mass: 12.010700
  - symbol: C  # 97
    coordinates: [  0.645359835984835,  0.244700179674452,  0.031254429915917 ]
    mass: 12.010700
  - symbol: C  # 98
    coordinates: [  0.354640166736194,  0.755299844894536,  0.968745582230745 ]
    mass: 12.010700
  - symbol: C  # 99
    coordinates: [  0.354640218360162,  0.255299947830125,  0.531254427956778 ]
    mass: 12.010700
  - symbol: C  # 100
    coordinates: [  0.645359801594051,  0.744700050475462,  0.468745587146403 ]
    mass: 12.010700
  - symbol: C  # 101
    coordinates: [  0.354640178867448,  0.744700175438420,  0.468745576032742 ]
    mass: 12.010700
  - symbol: C  # 102
    coordinates: [  0.645359835606914,  0.255299786578489,  0.531254396040623 ]
    mass: 12.010700
  - symbol: C  # 103
    coordinates: [  0.645359792146034,  0.755299914083067,  0.968745590779715 ]
    mass: 12.010700
  - symbol: C  # 104
    coordinates: [  0.354640212011094,  0.244700080974896,  0.031254395997878 ]
    mass: 12.010700
  - symbol: C  # 105
    coordinates: [  0.195072929435977,  0.739530847011184,  0.063505918206801 ]
    mass: 12.010700
  - symbol: C  # 106
    coordinates: [  0.804927076119457,  0.260469157507251,  0.936494083139662 ]
    mass: 12.010700
  - symbol: C  # 107
    coordinates: [  0.804927072340250,  0.760469059796102,  0.563505916789097 ]
    mass: 12.010700
  - symbol: C  # 108
    coordinates: [  0.195072934537907,  0.239530936532670,  0.436494075160623 ]
    mass: 12.010700
  - symbol: C  # 109
    coordinates: [  0.804927084433713,  0.239530830067054,  0.436494086488008 ]
    mass: 12.010700
  - symbol: C  # 110
    coordinates: [  0.195072924598592,  0.760469152282811,  0.563505917430270 ]
    mass: 12.010700
  - symbol: C  # 111
    coordinates: [  0.195072927319621,  0.260469074057411,  0.936494077440348 ]
    mass: 12.010700
  - symbol: C  # 112
    coordinates: [  0.804927077253219,  0.739530927495801,  0.063505913903820 ]
    mass: 12.010700
  - symbol: C  # 113
    coordinates: [  0.695072920479257,  0.239530928766610,  0.063505910306128 ]
    mass: 12.010700
  - symbol: C  # 114
    coordinates: [  0.304927080578921,  0.760469098908802,  0.936494101662430 ]
    mass: 12.010700
  - symbol: C  # 115
    coordinates: [  0.304927073776349,  0.260469181370234,  0.563505925195584 ]
    mass: 12.010700
  - symbol: C  # 116
    coordinates: [  0.695072923502622,  0.739530844187162,  0.436494079221384 ]
    mass: 12.010700
  - symbol: C  # 117
    coordinates: [  0.304927069657013,  0.739530915352508,  0.436494087200422 ]
    mass: 12.010700
  - symbol: C  # 118
    coordinates: [  0.695072925770146,  0.260469052030042,  0.563505878959905 ]
    mass: 12.010700
  - symbol: C  # 119
    coordinates: [  0.695072937863609,  0.760469131243850,  0.936494069603792 ]
    mass: 12.010700
  - symbol: C  # 120
    coordinates: [  0.304927064252747,  0.239530845457972,  0.063505914958193 ]
    mass: 12.010700
  - symbol: C  # 121
    coordinates: [  0.210974612247315,  0.859004043015400,  0.136620551969885 ]
    mass: 12.010700
  - symbol: C  # 122
    coordinates: [  0.789025385069448,  0.140995962420842,  0.863379448956254 ]
    mass: 12.010700
  - symbol: C  # 123
    coordinates: [  0.789025377511034,  0.640995887231266,  0.636620564508374 ]
    mass: 12.010700
  - symbol: C  # 124
    coordinates: [  0.210974621317412,  0.359004106414686,  0.363379426515208 ]
    mass: 12.010700
  - symbol: C  # 125
    coordinates: [  0.789025382046082,  0.359004032142916,  0.363379445536666 ]
    mass: 12.010700
  - symbol: C  # 126
    coordinates: [  0.210974615913146,  0.640995951618959,  0.636620562869821 ]
    mass: 12.010700
  - symbol: C  # 127
    coordinates: [  0.210974624340778,  0.140995902396262,  0.863379418322445 ]
    mass: 12.010700
  - symbol: C  # 128
    coordinates: [  0.789025372598065,  0.859004102037452,  0.136620572059964 ]
    mass: 12.010700
  - symbol: C  # 129
    coordinates: [  0.710974628157777,  0.359004107403093,  0.136620581606314 ]
    mass: 12.010700
  - symbol: C  # 130
    coordinates: [  0.289025372711441,  0.640995926908770,  0.863379431858314 ]
    mass: 12.010700
  - symbol: C  # 131
    coordinates: [  0.289025390587090,  0.140995969904500,  0.636620544347053 ]
    mass: 12.010700
  - symbol: C  # 132
    coordinates: [  0.710974607372138,  0.859004030448503,  0.363379437201420 ]
    mass: 12.010700
  - symbol: C  # 133
    coordinates: [  0.289025371426510,  0.859004100201838,  0.363379433496866 ]
    mass: 12.010700
  - symbol: C  # 134
    coordinates: [  0.710974636094111,  0.140995911306050,  0.636620553394713 ]
    mass: 12.010700
  - symbol: C  # 135
    coordinates: [  0.710974609639663,  0.640995943429297,  0.863379443256940 ]
    mass: 12.010700
  - symbol: C  # 136
    coordinates: [  0.289025388621902,  0.359004028048085,  0.136620537864084 ]
    mass: 12.010700
  - symbol: C  # 137
    coordinates: [  0.176494859847655,  0.982905400281352,  0.178433950235266 ]
    mass: 12.010700
  - symbol: C  # 138
    coordinates: [  0.823505140719226,  0.017094592898636,  0.821566054537909 ]
    mass: 12.010700
  - symbol: C  # 139
    coordinates: [  0.823505136184178,  0.517094542108607,  0.678433973673692 ]
    mass: 12.010700
  - symbol: C  # 140
    coordinates: [  0.176494867254901,  0.482905441370867,  0.321566015782578 ]
    mass: 12.010700
  - symbol: C  # 141
    coordinates: [  0.823505141097147,  0.482905415389868,  0.321566060379705 ]
    mass: 12.010700
  - symbol: C  # 142
    coordinates: [  0.176494856181824,  0.517094596188621,  0.678433952087543 ]
    mass: 12.010700
  - symbol: C  # 143
    coordinates: [  0.176494864798416,  0.017094558742094,  0.821566016067544 ]
    mass: 12.010700
  - symbol: C  # 144
    coordinates: [  0.823505134672495,  0.982905454643769,  0.178433975098521 ]
    mass: 12.010700
  - symbol: C  # 145
    coordinates: [  0.676494855501567,  0.482905439817655,  0.178433985499767 ]
    mass: 12.010700
  - symbol: C  # 146
    coordinates: [  0.323505140945978,  0.517094582209714,  0.821566028890999 ]
    mass: 12.010700
  - symbol: C  # 147
    coordinates: [  0.323505133236396,  0.017094608656677,  0.678433950591474 ]
    mass: 12.010700
  - symbol: C  # 148
    coordinates: [  0.676494846809391,  0.982905365122282,  0.321566034447829 ]
    mass: 12.010700
  - symbol: C  # 149
    coordinates: [  0.323505128776932,  0.982905459444605,  0.321566038508590 ]
    mass: 12.010700
  - symbol: C  # 150
    coordinates: [  0.676494868728791,  0.017094566974117,  0.678433967475689 ]
    mass: 12.010700
  - symbol: C  # 151
    coordinates: [  0.676494861926219,  0.517094599577447,  0.821566033165484 ]
    mass: 12.010700
  - symbol: C  # 152
    coordinates: [  0.323505131006664,  0.482905390820879,  0.178433949237887 ]
    mass: 12.010700
  - symbol: C  # 153
    coordinates: [  0.126226513664615,  0.984264152036016,  0.148614235700247 ]
    mass: 12.010700
  - symbol: C  # 154
    coordinates: [  0.873773481800337,  0.015735829410162,  0.851385763516097 ]
    mass: 12.010700
  - symbol: C  # 155
    coordinates: [  0.873773476509447,  0.515735775951432,  0.648614273386956 ]
    mass: 12.010700
  - symbol: C  # 156
    coordinates: [  0.126226522432375,  0.484264206116030,  0.351385722623525 ]
    mass: 12.010700
  - symbol: C  # 157
    coordinates: [  0.873773477265289,  0.484264194537541,  0.351385760025268 ]
    mass: 12.010700
  - symbol: C  # 158
    coordinates: [  0.126226516612396,  0.515735833985077,  0.648614243394320 ]
    mass: 12.010700
  - symbol: C  # 159
    coordinates: [  0.126226525947038,  0.015735776544477,  0.851385717921591 ]
    mass: 12.010700
  - symbol: C  # 160
    coordinates: [  0.873773469706875,  0.984264242687111,  0.148614280439856 ]
    mass: 12.010700
  - symbol: C  # 161
    coordinates: [  0.626226528403522,  0.484264226307785,  0.148614290057447 ]
    mass: 12.010700
  - symbol: C  # 162
    coordinates: [  0.373773469102201,  0.515735789789138,  0.851385725758147 ]
    mass: 12.010700
  - symbol: C  # 163
    coordinates: [  0.373773487129019,  0.015735848924152,  0.648614247098873 ]
    mass: 12.010700
  - symbol: C  # 164
    coordinates: [  0.626226506106201,  0.984264111793707,  0.351385745919468 ]
    mass: 12.010700
  - symbol: C  # 165
    coordinates: [  0.373773467439350,  0.984264247064344,  0.351385741716224 ]
    mass: 12.010700
  - symbol: C  # 166
    coordinates: [  0.626226540119064,  0.015735767027524,  0.648614272603301 ]
    mass: 12.010700
  - symbol: C  # 167
    coordinates: [  0.626226511019170,  0.515735853329626,  0.851385756391956 ]
    mass: 12.010700
  - symbol: C  # 168
    coordinates: [  0.373773482858515,  0.484264153730429,  0.148614228789830 ]
    mass: 12.010700
  - symbol: H  # 169
    coordinates: [  0.094171640229048,  0.539894553578766,  0.134784047790839 ]
    mass: 1.007940
  - symbol: H  # 170
    coordinates: [  0.905828289628870,  0.460105358735362,  0.865215948647090 ]
    mass: 1.007940
  - symbol: H  # 171
    coordinates: [  0.905828223492748,  0.960105166560688,  0.634784116681288 ]
    mass: 1.007940
  - symbol: H  # 172
    coordinates: [  0.094171699940518,  0.039894735841123,  0.365215890371612 ]
    mass: 1.007940
  - symbol: H  # 173
    coordinates: [  0.905828172851374,  0.039894742378733,  0.365215967597307 ]
    mass: 1.007940
  - symbol: H  # 174
    coordinates: [  0.094171750808644,  0.960105353369721,  0.634784030122968 ]
    mass: 1.007940
  - symbol: H  # 175
    coordinates: [  0.094171817511648,  0.460105164866275,  0.865215909464311 ]
    mass: 1.007940
  - symbol: H  # 176
    coordinates: [  0.905828111628221,  0.539894924372809,  0.134784100295763 ]
    mass: 1.007940
  - symbol: H  # 177
    coordinates: [  0.594171980962351,  0.039894934849929,  0.134784048788219 ]
    mass: 1.007940
  - symbol: H  # 178
    coordinates: [  0.405828027351905,  0.960105080992832,  0.865215954346403 ]
    mass: 1.007940
  - symbol: H  # 179
    coordinates: [  0.405828445332199,  0.460105500360048,  0.634784104071558 ]
    mass: 1.007940
  - symbol: H  # 180
    coordinates: [  0.594171712638654,  0.539894573205716,  0.365215982700487 ]
    mass: 1.007940
  - symbol: H  # 181
    coordinates: [  0.405828183811074,  0.539894873399218,  0.365215876906984 ]
    mass: 1.007940
  - symbol: H  # 182
    coordinates: [  0.594171975293540,  0.460105027618823,  0.634784043160147 ]
    mass: 1.007940
  - symbol: H  # 183
    coordinates: [  0.594171556935326,  0.960105488357956,  0.865215913026382 ]
    mass: 1.007940
  - symbol: H  # 184
    coordinates: [  0.405828452134771,  0.039894531833799,  0.134784095095139 ]
    mass: 1.007940
  - symbol: H  # 185
    coordinates: [  0.047026852958796,  0.278872416766895,  0.205710727647256 ]
    mass: 1.007940
  - symbol: H  # 186
    coordinates: [  0.952973118394815,  0.721127882296998,  0.794289183942147 ]
    mass: 1.007940
  - symbol: H  # 187
    coordinates: [  0.952973065107997,  0.221127990033424,  0.705710929117980 ]
    mass: 1.007940
  - symbol: H  # 188
    coordinates: [  0.047026903335625,  0.778872326398202,  0.294289188074149 ]
    mass: 1.007940
  - symbol: H  # 189
    coordinates: [  0.952973073422252,  0.778871592858578,  0.294289038110969 ]
    mass: 1.007940
  - symbol: H  # 190
    coordinates: [  0.047026894000984,  0.221128072494857,  0.705710865641878 ]
    mass: 1.007940
  - symbol: H  # 191
    coordinates: [  0.047026947287802,  0.721128197740217,  0.794289043596558 ]
    mass: 1.007940
  - symbol: H  # 192
    coordinates: [  0.952973021647116,  0.278871519151612,  0.205711061840738 ]
    mass: 1.007940
  - symbol: H  # 193
    coordinates: [  0.547027004429412,  0.778871041609551,  0.205711167491758 ]
    mass: 1.007940
  - symbol: H  # 194
    coordinates: [  0.452972995570588,  0.221128922384173,  0.794288858368876 ]
    mass: 1.007940
  - symbol: H  # 195
    coordinates: [  0.452973196624400,  0.721127252398969,  0.705710657189495 ]
    mass: 1.007940
  - symbol: H  # 196
    coordinates: [  0.547026869511722,  0.278872024369086,  0.294289180095111 ]
    mass: 1.007940
  - symbol: H  # 197
    coordinates: [  0.452973041298993,  0.278871905477775,  0.294289026641101 ]
    mass: 1.007940
  - symbol: H  # 198
    coordinates: [  0.547027028616337,  0.721128805328475,  0.705711118192698 ]
    mass: 1.007940
  - symbol: H  # 199
    coordinates: [  0.547026831719652,  0.221127161606673,  0.794289368457414 ]
    mass: 1.007940
  - symbol: H  # 200
    coordinates: [  0.452973165634903,  0.778872918736743,  0.205710631400103 ]
    mass: 1.007940
  - symbol: H  # 201
    coordinates: [  0.133930861282484,  0.655267757993399,  0.971951282093435 ]
    mass: 1.007940
  - symbol: H  # 202
    coordinates: [  0.866069142799060,  0.344732245395428,  0.028048714045280 ]
    mass: 1.007940
  - symbol: H  # 203
    coordinates: [  0.866069137886091,  0.844732127916127,  0.471951287222817 ]
    mass: 1.007940
  - symbol: H  # 204
    coordinates: [  0.133930866157661,  0.155267876461107,  0.528048712420976 ]
    mass: 1.007940
  - symbol: H  # 205
    coordinates: [  0.866069146200346,  0.155267745567703,  0.528048713917046 ]
    mass: 1.007940
  - symbol: H  # 206
    coordinates: [  0.133930864419226,  0.844732246242634,  0.471951278887571 ]
    mass: 1.007940
  - symbol: H  # 207
    coordinates: [  0.133930865515196,  0.344732129328138,  0.028048716018667 ]
    mass: 1.007940
  - symbol: H  # 208
    coordinates: [  0.866069137886091,  0.655267870530661,  0.971951284230678 ]
    mass: 1.007940
  - symbol: H  # 209
    coordinates: [  0.633930868916482,  0.155267866012227,  0.971951272832051 ]
    mass: 1.007940
  - symbol: H  # 210
    coordinates: [  0.366069134295844,  0.844732152767517,  0.028048740575584 ]
    mass: 1.007940
  - symbol: H  # 211
    coordinates: [  0.366069155875116,  0.344732265304780,  0.471951308239035 ]
    mass: 1.007940
  - symbol: H  # 212
    coordinates: [  0.633930863247672,  0.655267750227339,  0.528048722109808 ]
    mass: 1.007940
  - symbol: H  # 213
    coordinates: [  0.366069133917923,  0.655267852315722,  0.528048720471256 ]
    mass: 1.007940
  - symbol: H  # 214
    coordinates: [  0.633930871184006,  0.344732067905667,  0.471951236498929 ]
    mass: 1.007940
  - symbol: H  # 215
    coordinates: [  0.633930864759354,  0.844732209247951,  0.028048711879541 ]
    mass: 1.007940
  - symbol: H  # 216
    coordinates: [  0.366069141778674,  0.155267787645626,  0.971951276394122 ]
    mass: 1.007940
  - symbol: H  # 217
    coordinates: [  0.221544896056993,  0.639913403302011,  0.031923016092772 ]
    mass: 1.007940
  - symbol: H  # 218
    coordinates: [  0.778455105983779,  0.360086608417679,  0.968076982966841 ]
    mass: 1.007940
  - symbol: H  # 219
    coordinates: [  0.778455099937047,  0.860086499410443,  0.531923009695293 ]
    mass: 1.007940
  - symbol: H  # 220
    coordinates: [  0.221544903010734,  0.139913503780701,  0.468076984890360 ]
    mass: 1.007940
  - symbol: H  # 221
    coordinates: [  0.778455108629224,  0.139913361407650,  0.468076973776699 ]
    mass: 1.007940
  - symbol: H  # 222
    coordinates: [  0.221544899949576,  0.860086598251201,  0.531923026080818 ]
    mass: 1.007940
  - symbol: H  # 223
    coordinates: [  0.221544902443853,  0.360086518613790,  0.968076976555114 ]
    mass: 1.007940
  - symbol: H  # 224
    coordinates: [  0.778455099181206,  0.639913476020569,  0.031923016976165 ]
    mass: 1.007940
  - symbol: H  # 225
    coordinates: [  0.721544907621367,  0.139913490451319,  0.031923018828442 ]
    mass: 1.007940
  - symbol: H  # 226
    coordinates: [  0.278455095213039,  0.860086542053170,  0.968076994365468 ]
    mass: 1.007940
  - symbol: H  # 227
    coordinates: [  0.278455116036469,  0.360086624797004,  0.531923014112261 ]
    mass: 1.007940
  - symbol: H  # 228
    coordinates: [  0.721544897417508,  0.639913416433712,  0.468076984249187 ]
    mass: 1.007940
  - symbol: H  # 229
    coordinates: [  0.278455096006672,  0.639913463171270,  0.468076981969462 ]
    mass: 1.007940
  - symbol: H  # 230
    coordinates: [  0.721544908377208,  0.360086495315612,  0.531922976354310 ]
    mass: 1.007940
  - symbol: H  # 231
    coordinates: [  0.721544897417508,  0.860086562809729,  0.968076982254427 ]
    mass: 1.007940
  - symbol: H  # 232
    coordinates: [  0.278455108780392,  0.139913408667652,  0.031922998403528 ]
    mass: 1.007940
  - symbol: H  # 233
    coordinates: [  0.250206601083417,  0.855456185783158,  0.160198054028755 ]
    mass: 1.007940
  - symbol: H  # 234
    coordinates: [  0.749793399445672,  0.144543827066141,  0.839801948464695 ]
    mass: 1.007940
  - symbol: H  # 235
    coordinates: [  0.749793393021020,  0.644543752653170,  0.660198060297999 ]
    mass: 1.007940
  - symbol: H  # 236
    coordinates: [  0.250206609208712,  0.355456236756749,  0.339801927662202 ]
    mass: 1.007940
  - symbol: H  # 237
    coordinates: [  0.749793400957355,  0.355456159096153,  0.339801947467315 ]
    mass: 1.007940
  - symbol: H  # 238
    coordinates: [  0.250206598929269,  0.644543813934440,  0.660198064073794 ]
    mass: 1.007940
  - symbol: H  # 239
    coordinates: [  0.250206606260931,  0.144543779057773,  0.839801920680543 ]
    mass: 1.007940
  - symbol: H  # 240
    coordinates: [  0.749793392643099,  0.855456222777842,  0.160198066353520 ]
    mass: 1.007940
  - symbol: H  # 241
    coordinates: [  0.750206602443932,  0.355456240569178,  0.160198077538422 ]
    mass: 1.007940
  - symbol: H  # 242
    coordinates: [  0.249793397291524,  0.644543803909163,  0.839801935641240 ]
    mass: 1.007940
  - symbol: H  # 243
    coordinates: [  0.249793396989187,  0.144543833843793,  0.660198037714470 ]
    mass: 1.007940
  - symbol: H  # 244
    coordinates: [  0.750206594129676,  0.855456188183576,  0.339801937066068 ]
    mass: 1.007940
  - symbol: H  # 245