512  
4    

1    
  0.0045801749598502   0.0058194991441407   0.0067197787946113
  -0.0006036604   -0.0027859923   -0.0048625615
   0.0000001347    0.0013955939    0.0000045275
   0.0000003296    0.0013651665    0.0000161857
   0.0000000016    0.0013858874    0.0000129540
  -0.0000000174    0.0013812041    0.0000020340
  -0.0000000084    0.0013844710    0.0000006903
   0.0000003131    0.0013800087    0.0000032551
   0.0000000025    0.0013956411    0.0000044760
  -0.0000082768    0.0017699540    0.0002360788
  -0.0000002222    0.0013788541    0.0000057202
  -0.0000002141    0.0013851742   -0.0000009936
  -0.0000000047    0.0013817310    0.0000002962
   0.0000000243    0.0013926523    0.0000022244
   0.0000000017    0.0013962392    0.0000070741
   0.0000025797    0.0013827295    0.0000382593
  -0.0000000122    0.0013932480    0.0000102745
   0.0000051847   -0.0013930251   -0.0000011238
  -0.0000000187   -0.0013921779    0.0000001065
  -0.0000000395   -0.0013920173   -0.0000002141
  -0.0000000233   -0.0013920139   -0.0000000490
   0.0000000235   -0.0013920086   -0.0000000202
   0.0000000061   -0.0013920384   -0.0000000042
   0.0000000186   -0.0013919250   -0.0000000901
   0.0000000119   -0.0013920337   -0.0000000380
  -0.0000001055   -0.0013919753    0.0000005815
  -0.0000000435   -0.0013919719    0.0000000204
   0.0000000106   -0.0013919983   -0.0000000496
   0.0000000085   -0.0013920464   -0.0000000190
  -0.0000000004   -0.0013919713   -0.0000000458
   0.0000000036   -0.0013919819   -0.0000000475
   0.0000000502   -0.0013920778    0.0000000502
   0.0000000291   -0.0013920659    0.0000000193
   0.0002322507   -0.0009948228    0.0012570931
  -0.0000003808   -0.0014217970   -0.0000006159
   0.0000007674   -0.0014140900   -0.0000142809
   0.0000000036   -0.0014163020   -0.0000112572
   0.0000001863   -0.0014248202   -0.0000096178
   0.0000000141   -0.0014253723   -0.0000065503
  -0.0000254131   -0.0014758873   -0.0000417964
   0.0000000234   -0.0014215312   -0.0000010912
   0.0000157948   -0.0014289822   -0.0001380498
  -0.0000000869   -0.0014188717   -0.0000081084
  -0.0000001292   -0.0014254013   -0.0000045614
  -0.0000000148   -0.0014255699   -0.0000077285
  -0.0000001293   -0.0014204281   -0.0000002182
  -0.0000000146   -0.0014186479   -0.0000017006
   0.0000157580   -0.0011932186    0.0000670943
  -0.0000000871   -0.0014213955   -0.0000101294
   0.0000047949    0.0014244213    0.0000019378
   0.0000000082    0.0014233891    0.0000000127
  -0.0000000070    0.0014234543    0.0000000151
   0.0000000003    0.0014234742    0.0000000364
  -0.0000000032    0.0014234249    0.0000000336
  -0.0000000007    0.0014234475    0.0000000128
  -0.0000000176    0.0014232691    0.0000004649
  -0.0000000112    0.0014234943    0.0000000222
  -0.0000001228    0.0014234712    0.0000001792
   0.0000000179    0.0014233899   -0.0000000308
  -0.0000000009    0.0014234304    0.0000000272
  -0.0000000011    0.0014234181    0.0000000596
   0.0000000007    0.0014234700    0.0000000174
  -0.0000000007    0.0014235037   -0.0000000102
   0.0000000886    0.0014236978   -0.0000004242
  -0.0000000011    0.0014234603   -0.0000000163
  -0.0000000246    0.0013920341    0.0000000419
   0.0000000000    0.0013919941   -0.0000000072
  -0.0000000027    0.0013919889   -0.0000000087
  -0.0000000000    0.0013919962   -0.0000000003
  -0.0000000000    0.0013919966    0.0000000008
   0.0000000000    0.0013919950    0.0000000031
  -0.0000000027    0.0013920104   -0.0000000229
  -0.0000000000    0.0013919938    0.0000000057
  -0.0000000127    0.0013919900   -0.0000000010
  -0.0000000007    0.0013920011   -0.0000000044
  -0.0000000007    0.0013919941    0.0000000028
  -0.0000000001    0.0013919924    0.0000000007
  -0.0000000001    0.0013919964   -0.0000000000
   0.0000000000    0.0013919960    0.0000000027
  -0.0000000039    0.0013919926   -0.0000000088
  -0.0000000002    0.0013919903    0.0000000025
   0.0000052396   -0.0013930529   -0.0000011088
   0.0000000017   -0.0013921615    0.0000001064
   0.0000000302   -0.0013920082   -0.0000001743
   0.0000000197   -0.0013920077   -0.0000000249
  -0.0000000248   -0.0013920466   -0.0000000202
  -0.0000000048   -0.0013920470   -0.0000000042
  -0.0000000278   -0.0013919161   -0.0000001295
  -0.0000000154   -0.0013920277   -0.0000000619
   0.0000001730   -0.0013916715    0.0000005064
   0.0000000350   -0.0013919803    0.0000000814
  -0.0000000148   -0.0013920533   -0.0000000193
  -0.0000000076   -0.0013920560   -0.0000000216
  -0.0000000007   -0.0013919792   -0.0000000392
  -0.0000000060   -0.0013919837   -0.0000000526
  -0.0000001293   -0.0013920230   -0.0000001200
  -0.0000000403   -0.0013920967   -0.0000000015
  -0.0000000206   -0.0014234554    0.0000000056
  -0.0000000005   -0.0014234440    0.0000000036
  -0.0000000011   -0.0014234411    0.0000000042
  -0.0000000002   -0.0014234403   -0.0000000029
  -0.0000000003   -0.0014234460    0.0000000019
  -0.0000000001   -0.0014234429   -0.0000000005
  -0.0000000064   -0.0014234443   -0.0000000182
  -0.0000000003   -0.0014234431   -0.0000000016
  -0.0000000108   -0.0014234470   -0.0000000297
  -0.0000000005   -0.0014234425    0.0000000002
  -0.0000000005   -0.0014234435   -0.0000000001
  -0.0000000002   -0.0014234416   -0.0000000045
  -0.0000000005   -0.0014234425    0.0000000042
  -0.0000000002   -0.0014234419   -0.0000000008
  -0.0000000108   -0.0014233968    0.0000000174
  -0.0000000005   -0.0014234452   -0.0000000002
   0.0000006583    0.0014228140   -0.0000008529
  -0.0000000091    0.0014233875    0.0000000110
  -0.0000000021    0.0014234861    0.0000000066
   0.0000000009    0.0014234699    0.0000000143
   0.0000000028    0.0014234275    0.0000000592
   0.0000000009    0.0014234462    0.0000000220
  -0.0000000309    0.0014232340    0.0000004099
   0.0000000148    0.0014235189    0.0000000243
   0.0000000901    0.0014235403    0.0000001053
  -0.0000000232    0.0014233739   -0.0000000657
  -0.0000000002    0.0014234407    0.0000000390
   0.0000000019    0.0014234354    0.0000000672
  -0.0000000018    0.0014234803    0.0000000056
   0.0000000015    0.0014235208   -0.0000000179
  -0.0000001210    0.0014237665   -0.0000003500
  -0.0000000042    0.0014234444    0.0000000187
   0.0000024989    0.0014313066    0.0000111537
   0.0000024896    0.0014313073    0.0000110755
  -0.0000001969    0.0013905477    0.0000270121
  -0.0000001933    0.0013731119    0.0000118849
  -0.0000000188    0.0013813053    0.0000015730
  -0.0000000187    0.0013813086    0.0000015683
  -0.0000001930    0.0013952074   -0.0000073134
  -0.0000001939    0.0014125741    0.0000078265
  -0.0000002243    0.0013910833    0.0000163555
  -0.0000073454    0.0012489535   -0.0002149400
  -0.0000000045    0.0013852009    0.0000033120
  -0.0000002128    0.0013852256   -0.0000009532
   0.0000000018    0.0013938132    0.0000049546
   0.0000000241    0.0013929189    0.0000024584
  -0.0000000110    0.0013897460    0.0000072383
   0.0000025939    0.0014145691    0.0000657449
  -0.0000002099   -0.0013920407    0.0000001633
   0.0000000786   -0.0013922176    0.0000000631
  -0.0000000511   -0.0013920812   -0.0000000264
  -0.0000000427   -0.0013920124   -0.0000000887
   0.0000000257   -0.0013920026    0.0000000187
   0.0000000159   -0.0013920476   -0.0000000106
  -0.0000000104   -0.0013920967   -0.0000000088
   0.0000000408   -0.0013920533   -0.0000000629
  -0.0000000449   -0.0013920651    0.0000000209
  -0.0000001781   -0.0013915931   -0.0000004074
   0.0000000070   -0.0013920453   -0.0000000206
   0.0000000135   -0.0013920265   -0.0000000699
   0.0000000024   -0.0013919887   -0.0000000301
  -0.0000000012   -0.0013919714   -0.0000000410
   0.0000000191   -0.0013920135    0.0000000799
   0.0000001946   -0.0013918296    0.0000003016
  -0.0000254658   -0.0014433890    0.0000508544
  -0.0000002824   -0.0014109085    0.0000175493
   0.0000000987   -0.0014145188   -0.0000193509
  -0.0000004112   -0.0014130296   -0.0000149442
   0.0000000077   -0.0014245488   -0.0000090795
   0.0000001066   -0.0014279277   -0.0000111300
  -0.0000004084   -0.0014125743    0.0000171978
   0.0000009637   -0.0014250978   -0.0000002691
   0.0000013356   -0.0014212280   -0.0000105774
  -0.0000260703   -0.0013620773   -0.0000491234
  -0.0000000162   -0.0014281000   -0.0000096988
  -0.0000003752   -0.0014250768   -0.0000043249
  -0.0000000161   -0.0014154929    0.0000013090
  -0.0000003755   -0.0014200797    0.0000000396
   0.0000013285   -0.0014103291   -0.0000008927
  -0.0000261370   -0.0014179015   -0.0000969981
  -0.0000000308    0.0014234063    0.0000001622
   0.0000000813    0.0014231188    0.0000000370
  -0.0000000010    0.0014234634    0.0000000229
  -0.0000000000    0.0014235080    0.0000000945
   0.0000000002    0.0014234428   -0.0000000405
  -0.0000000031    0.0014234190    0.0000000489
  -0.0000000127    0.0014234875   -0.0000000204
   0.0000000186    0.0014235932   -0.0000000785
  -0.0000000048    0.0014234340   -0.0000000357
  -0.0000001137    0.0014235022    0.0000001864
  -0.0000000002    0.0014234288    0.0000000391
  -0.0000000024    0.0014234372    0.0000000486
  -0.0000000054    0.0014234816   -0.0000000125
  -0.0000000004    0.0014234401    0.0000000178
   0.0000000074    0.0014234453   -0.0000000660
   0.0000000671    0.0014236165    0.0000003053
  -0.0000000039    0.0013919825   -0.0000000077
  -0.0000000039    0.0013919812   -0.0000000071
  -0.0000000007    0.0013919946    0.0000000012
  -0.0000000007    0.0013919908   -0.0000000011
   0.0000000000    0.0013919928    0.0000000021
   0.0000000000    0.0013919915    0.0000000017
  -0.0000000007    0.0013919895    0.0000000060
  -0.0000000007    0.0013919907    0.0000000081
  -0.0000000007    0.0013919983   -0.0000000087
  -0.0000000127    0.0013920125    0.0000000182
  -0.0000000001    0.0013919933    0.0000000011
  -0.0000000007    0.0013919869   -0.0000000031
   0.0000000000    0.0013919959    0.0000000027
  -0.0000000001    0.0013919969    0.0000000009
  -0.0000000002    0.0013919943    0.0000000046
  -0.0000000039    0.0013919841   -0.0000000161
   0.0000001112   -0.0013917872    0.0000001632
  -0.0000001622   -0.0013924067    0.0000000628
   0.0000000437   -0.0013920385    0.0000000013
   0.0000000341   -0.0013920179   -0.0000000313
  -0.0000000256   -0.0013920430    0.0000000187
  -0.0000000158   -0.0013920726   -0.0000000106
   0.0000000030   -0.0013920541   -0.0000000366
  -0.0000000493   -0.0013920587   -0.0000001197
   0.0000000346   -0.0013920153    0.0000000320
   0.0000002425   -0.0013916646   -0.0000000568
  -0.0000000059   -0.0013920591   -0.0000000174
  -0.0000000184   -0.0013920759   -0.0000000487
  -0.0000000044   -0.0013919907   -0.0000000331
   0.0000000002   -0.0013919758   -0.0000000361
  -0.0000000297   -0.0013920178    0.0000000503
  -0.0000002919   -0.0013919692    0.0000000906
  -0.0000000065   -0.0014234616   -0.0000000143
  -0.0000000026   -0.0014234379    0.0000000124
  -0.0000000006   -0.0014234394   -0.0000000000
  -0.0000000004   -0.0014234381   -0.0000000035
  -0.0000000002   -0.0014234425    0.0000000009
  -0.0000000002   -0.0014234433   -0.0000000015
  -0.0000000025   -0.0014234304    0.0000000078
  -0.0000000012   -0.0014234377   -0.0000000076
  -0.0000000012   -0.0014234414    0.0000000025
  -0.0000000066   -0.0014234478   -0.0000000027
  -0.0000000002   -0.0014234451   -0.0000000043
  -0.0000000003   -0.0014234420   -0.0000000003
  -0.0000000002   -0.0014234417    0.0000000020
  -0.0000000003   -0.0014234444    0.0000000008
  -0.0000000012   -0.0014234511   -0.0000000039
  -0.0000000066   -0.0014234626   -0.0000000131
   0.0000000111    0.0014233842    0.0000000946
  -0.0000001253    0.0014231206    0.0000001226
   0.0000000068    0.0014234648   -0.0000000247
  -0.0000000067    0.0014235232    0.0000000525
   0.0000000014    0.0014234415   -0.0000000090
   0.0000000024    0.0014234168    0.0000000696
   0.0000000107    0.0014235001   -0.0000000232
  -0.0000000316    0.0014236684   -0.0000000986
   0.0000000065    0.0014234377   -0.0000000682
  -0.0000000825    0.0014235156    0.0000001118
   0.0000000022    0.0014234359    0.0000000437
   0.0000000020    0.0014234466    0.0000000622
   0.0000000075    0.0014234886   -0.0000000171
   0.0000000001    0.0014234494    0.0000000041
  -0.0000000056    0.0014234491   -0.0000000333
  -0.0000002634    0.0014236299    0.0000003783
  -0.0000084174    0.0012619731    0.0002986394
   0.0000000423    0.0013877827    0.0000024476
  -0.0000000937    0.0013941189    0.0000085233
   0.0000000159    0.0013943412    0.0000049675
  -0.0000000972    0.0013884049    0.0000134927
   0.0000000157    0.0013869672    0.0000113781
  -0.0000075508    0.0011183874    0.0004212148
   0.0000000417    0.0013894668    0.0000009905
   0.0000026102    0.0014267402    0.0000553561
  -0.0000000116    0.0013948445    0.0000028084
   0.0000000237    0.0013838323    0.0000103613
   0.0000000016    0.0013836208    0.0000138119
  -0.0000002112    0.0013679803    0.0000140249
  -0.0000000049    0.0013877008    0.0000011420
  -0.0000075631    0.0014004174   -0.0003473353
  -0.0000002221    0.0014085443    0.0000011477
   0.0000000552   -0.0013917028    0.0000003490
   0.0000000067   -0.0013920276   -0.0000000474
  -0.0000000188   -0.0013919654   -0.0000000728
  -0.0000000047   -0.0013919828   -0.0000000149
   0.0000000275   -0.0013919890   -0.0000000579
   0.0000000143   -0.0013920390   -0.0000000472
   0.0000003297   -0.0013921882    0.0000001236
   0.0000000027   -0.0013919801   -0.0000000055
  -0.0000001988   -0.0013921999   -0.0000002256
  -0.0000000010   -0.0013920105    0.0000000468
   0.0000000092   -0.0013920115   -0.0000000736
  -0.0000000040   -0.0013920309   -0.0000000945
   0.0000000548   -0.0013919807   -0.0000000018
   0.0000000047   -0.0013920184    0.0000000049
  -0.0000002145   -0.0013925898   -0.0000000208
   0.0000000457   -0.0013921731   -0.0000000924
  -0.0000254073   -0.0013886581    0.0000340834
   0.0000000216   -0.0014284588   -0.0000071889
   0.0000001851   -0.0014146301   -0.0000007703
   0.0000000141   -0.0014174686    0.0000002664
   0.0000007634   -0.0014023536   -0.0000040603
   0.0000000035   -0.0014157556   -0.0000106673
   0.0002377646    0.0000713136    0.0022008850
  -0.0000003809   -0.0014270191   -0.0000050411
  -0.0000000778   -0.0013990178   -0.0000143485
   0.0000001354   -0.0014168481    0.0000023358
  -0.0000000074   -0.0014128102   -0.0000088458
  -0.0000000372   -0.0014159014   -0.0000142792
  -0.0000000731   -0.0014160979   -0.0000292112
   0.0000001353   -0.0014275818   -0.0000068730
   0.0002332016    0.0002942531    0.0007754648
   0.0000001817   -0.0014271297    0.0000042012
  -0.0000000770    0.0014235902    0.0000000609
  -0.0000000085    0.0014234472    0.0000000484
   0.0000000009    0.0014234704    0.0000000230
   0.0000000022    0.0014234687   -0.0000000190
  -0.0000000036    0.0014234291    0.0000000607
   0.0000000029    0.0014234835    0.0000000400
   0.0000021324    0.0014236013   -0.0000017140
  -0.0000000505    0.0014236428   -0.0000001113
   0.0000000088    0.0014234791    0.0000000008
   0.0000000091    0.0014234231   -0.0000000255
  -0.0000000007    0.0014234667    0.0000000607
   0.0000000016    0.0014234930    0.0000000824
   0.0000000322    0.0014235901   -0.0000001095
  -0.0000000137    0.0014235090   -0.0000000510
  -0.0000002751    0.0014237619    0.0000000805
  -0.0000000567    0.0014235841    0.0000001120
  -0.0000000128    0.0013920055   -0.0000000021
  -0.0000000002    0.0013919949   -0.0000000042
  -0.0000000003    0.0013919969   -0.0000000009
   0.0000000001    0.0013919969   -0.0000000005
  -0.0000000003    0.0013919993    0.0000000003
   0.0000000001    0.0013919938    0.0000000050
  -0.0000000127    0.0013920210   -0.0000000119
  -0.0000000002    0.0013919947   -0.0000000011
  -0.0000000039    0.0013919844   -0.0000000171
  -0.0000000002    0.0013919985   -0.0000000004
  -0.0000000001    0.0013919953    0.0000000038
   0.0000000000    0.0013919938    0.0000000051
  -0.0000000007    0.0013919937   -0.0000000068
  -0.0000000001    0.0013919939    0.0000000014
  -0.0000000127    0.0013920009    0.0000000302
  -0.0000000007    0.0013919912   -0.0000000016
   0.0000000220   -0.0013919466    0.0000005373
  -0.0000000074   -0.0013920355   -0.0000000502
   0.0000000109   -0.0013919785   -0.0000000410
   0.0000000012   -0.0013919933   -0.0000000018
  -0.0000000353   -0.0013920021   -0.0000000895
  -0.0000000178   -0.0013920493   -0.0000000602
  -0.0000002587   -0.0013924302   -0.0000000693
  -0.0000000034   -0.0013919882   -0.0000000028
   0.0000001193   -0.0013921451   -0.0000000557
  -0.0000000102   -0.0013920413    0.0000000674
  -0.0000000103   -0.0013920193   -0.0000000801
   0.0000000017   -0.0013920325   -0.0000000891
  -0.0000000590   -0.0013920356   -0.0000000320
  -0.0000000038   -0.0013920282    0.0000000075
   0.0000002780   -0.0013922840    0.0000000514
  -0.0000000541   -0.0013921814   -0.0000001533
  -0.0000000064   -0.0014234476   -0.0000000208
  -0.0000000003   -0.0014234418   -0.0000000020
  -0.0000000003   -0.0014234440    0.0000000049
  -0.0000000001   -0.0014234416    0.0000000021
  -0.0000000011   -0.0014234512   -0.0000000027
  -0.0000000002   -0.0014234418   -0.0000000027
  -0.0000000206   -0.0014234284    0.0000000307
  -0.0000000005   -0.0014234463    0.0000000035
  -0.0000000025   -0.0014234381    0.0000000028
  -0.0000000003   -0.0014234422   -0.0000000024
  -0.0000000002   -0.0014234425    0.0000000016
  -0.0000000002   -0.0014234407   -0.0000000016
  -0.0000000025   -0.0014234342    0.0000000110
  -0.0000000003   -0.0014234434    0.0000000007
  -0.0000000208   -0.0014234217   -0.0000000084
  -0.0000000007   -0.0014234436    0.0000000028
   0.0000000283    0.0014235546    0.0000001161
   0.0000000122    0.0014234719    0.0000000462
  -0.0000000013    0.0014234729   -0.0000000028
  -0.0000000020    0.0014234672   -0.0000000282
  -0.0000000054    0.0014234609    0.0000000691
  -0.0000000017    0.0014234792    0.0000000621
   0.0000032610    0.0014220095    0.0000010609
   0.0000000496    0.0014236411   -0.0000001093
   0.0000000069    0.0014234353   -0.0000000908
  -0.0000000088    0.0014234214   -0.0000000268
  -0.0000000022    0.0014234902    0.0000000607
  -0.0000000020    0.0014234957    0.0000000822
  -0.0000000166    0.0014235464   -0.0000000178
   0.0000000139    0.0014235073   -0.0000000495
   0.0000000994    0.0014236998    0.0000000803
   0.0000000760    0.0014236935    0.0000001119
   0.0000000288    0.0014004800    0.0000043041
   0.0000000024    0.0013733163   -0.0000192768
   0.0000000510    0.0013971393    0.0000093489
   0.0000000504    0.0013940208    0.0000066442
   0.0000000500    0.0013840992    0.0000152701
   0.0000000503    0.0013872139    0.0000179659
   0.0000000058    0.0013754976   -0.0000211745
  -0.0000000021    0.0014024874    0.0000024631
  -0.0000000105    0.0013983381    0.0000058557
   0.0000025861    0.0013948878    0.0000277154
   0.0000000015    0.0013860602    0.0000159258
   0.0000000239    0.0013835627    0.0000101286
  -0.0000000048    0.0013842405   -0.0000018785
  -0.0000002120    0.0013679491    0.0000139559
  -0.0000002227    0.0013963546   -0.0000094883
  -0.0000071791    0.0019163730    0.0001020738
  -0.0000000340   -0.0013921392   -0.0000001251
   0.0000000186   -0.0013920405    0.0000000017
  -0.0000000219   -0.0013919866   -0.0000000079
  -0.0000000130   -0.0013919797   -0.0000000523
   0.0000000335   -0.0013920313   -0.0000000060
   0.0000000378   -0.0013920512   -0.0000000765
   0.0000000111   -0.0013919661    0.0000000583
   0.0000000180   -0.0013920955   -0.0000000425
  -0.0000000241   -0.0013920561    0.0000000135
  -0.0000001148   -0.0013918986    0.0000000294
  -0.0000000021   -0.0013920377   -0.0000000748
   0.0000000057   -0.0013920298   -0.0000000861
   0.0000000117   -0.0013920074    0.0000000174
   0.0000000443   -0.0013919982   -0.0000000224
  -0.0000000284   -0.0013921315   -0.0000000247
   0.0000003319   -0.0013917335   -0.0000001789
  -0.0000004141   -0.0014509088   -0.0000163471
   0.0000009575   -0.0014245583    0.0000001089
   0.0000000076   -0.0014147836   -0.0000006091
   0.0000001064   -0.0014150102    0.0000000396
   0.0000000978   -0.0014010338   -0.0000075213
  -0.0000004128   -0.0014197655   -0.0000206814
  -0.0000254187   -0.0014963312    0.0000053113
  -0.0000002831   -0.0014455408   -0.0000123601
  -0.0000000865   -0.0014212667   -0.0000003877
   0.0000035686   -0.0014028731   -0.0000086000
  -0.0000000026   -0.0014126288   -0.0000126078
  -0.0000000434   -0.0014131131   -0.0000089690
  -0.0000000871   -0.0014257827   -0.0000041875
   0.0000035781   -0.0014486529   -0.0000481940
   0.0000031318   -0.0014538159   -0.0000022412
   0.0000171789   -0.0015005833    0.0001714832
  -0.0000000230    0.0014234260   -0.0000000117
  -0.0000000103    0.0014234072    0.0000000699
   0.0000000017    0.0014234651   -0.0000000267
   0.0000000016    0.0014234874    0.0000000117
   0.0000000123    0.0014235009   -0.0000000356
   0.0000000059    0.0014234776    0.0000000718
  -0.0000000492    0.0014235702   -0.0000001865
  -0.0000000986    0.0014241095   -0.0000000200
   0.0000000046    0.0014234494   -0.0000000150
  -0.0000000176    0.0014235969    0.0000000361
   0.0000000020    0.0014234893    0.0000000641
   0.0000000001    0.0014234760    0.0000000765
  -0.0000000120    0.0014234982   -0.0000000733
   0.0000000046    0.0014233267    0.0000000433
  -0.0000000515    0.0014236070    0.0000000466
   0.0000012367    0.0014223336   -0.0000005308
  -0.0000000027    0.0013919860   -0.0000000194
  -0.0000000027    0.0013920029   -0.0000000035
  -0.0000000000    0.0013919947   -0.0000000001
  -0.0000000000    0.0013919911   -0.0000000023
  -0.0000000000    0.0013919918    0.0000000018
  -0.0000000000    0.0013919928    0.0000000036
  -0.0000000027    0.0013919865    0.0000000151
  -0.0000000027    0.0013919671   -0.0000000004
  -0.0000000002    0.0013919971   -0.0000000028
  -0.0000000039    0.0013919928   -0.0000000099
   0.0000000000    0.0013919945    0.0000000058
  -0.0000000001    0.0013919936    0.0000000028
  -0.0000000001    0.0013919945    0.0000000015
  -0.0000000007    0.0013920003   -0.0000000009
  -0.0000000007    0.0013919973    0.0000000017
  -0.0000000127    0.0013919789    0.0000000111
   0.0000000265   -0.0013921269   -0.0000000942
  -0.0000000263   -0.0013920755    0.0000000012
   0.0000000152   -0.0013920010    0.0000000300
   0.0000000058   -0.0013920052   -0.0000000173
  -0.0000000401   -0.0013920456   -0.0000000439
  -0.0000000449   -0.0013920763   -0.0000001112
  -0.0000000187   -0.0013919542    0.0000000274
  -0.0000000257   -0.0013921306   -0.0000000418
   0.0000000134   -0.0013920604    0.0000000431
   0.0000000166   -0.0013920390    0.0000002415
   0.0000000002   -0.0013920395   -0.0000000717
  -0.0000000067   -0.0013920341   -0.0000000908
  -0.0000000105   -0.0013920213    0.0000000141
  -0.0000000492   -0.0013920476   -0.0000000434
   0.0000000181   -0.0013920818   -0.0000000359
  -0.0000002696   -0.0013918063   -0.0000005284
  -0.0000000025   -0.0014234380    0.0000000020
  -0.0000000012   -0.0014234387   -0.0000000082
  -0.0000000002   -0.0014234423    0.0000000029
  -0.0000000002   -0.0014234407    0.0000000029
  -0.0000000006   -0.0014234382    0.0000000011
  -0.0000000004   -0.0014234410   -0.0000000059
  -0.0000000065   -0.0014234470    0.0000000015
  -0.0000000026   -0.0014234373    0.0000000133
  -0.0000000005   -0.0014234426   -0.0000000011
  -0.0000000017   -0.0014234404   -0.0000000089
  -0.0000000001   -0.0014234430   -0.0000000004
  -0.0000000001   -0.0014234423    0.0000000012
  -0.0000000005   -0.0014234418    0.0000000031
  -0.0000000017   -0.0014234536   -0.0000000174
  -0.0000000018   -0.0014234573   -0.0000000037
  -0.0000000111   -0.0014234578    0.0000000389
   0.0000000210    0.0014234387   -0.0000000089
  -0.0000000028    0.0014234828    0.0000000898
  -0.0000000000    0.0014234638   -0.0000000581
  -0.0000000024    0.0014234851   -0.0000000092
  -0.0000000065    0.0014235022    0.0000000120
  -0.0000000126    0.0014234928    0.0000001135
   0.0000000295    0.0014235480   -0.0000001188
   0.0000000547    0.0014241106   -0.0000001052
  -0.0000000054    0.0014234416   -0.0000000353
   0.0000000017    0.0014235553   -0.0000000109
   0.0000000023    0.0014234836    0.0000000640
  -0.0000000035    0.0014234954    0.0000000764
   0.0000000112    0.0014234903   -0.0000000530
  -0.0000000204    0.0014232855    0.0000000901
   0.0000000472    0.0014235913    0.0000000466
   0.0000042123    0.0014256133   -0.0000005260

1    
 -0.0045801749598502  -0.0058194991441407  -0.0067197787946113
   0.0006036318    0.0055637489    0.0048194542
  -0.0000001351    0.0013884404   -0.0000045591
  -0.0000003025    0.0014189388   -0.0000161666
  -0.0000000025    0.0013981518   -0.0000130395
   0.0000000177    0.0014027801   -0.0000020689
   0.0000000083    0.0013995228   -0.0000007040
  -0.0000003192    0.0014040970   -0.0000033884
  -0.0000000017    0.0013882976   -0.0000045378
   0.0000070384    0.0010183557   -0.0002340387
   0.0000002250    0.0014053030   -0.0000057150
   0.0000002093    0.0013987039    0.0000009138
   0.0000000043    0.0014022665   -0.0000003098
  -0.0000000236    0.0013912957   -0.0000022835
  -0.0000000016    0.0013876763   -0.0000071613
  -0.0000025953    0.0014013135   -0.0000385435
   0.0000000119    0.0013907331   -0.0000103540
  -0.0000052926   -0.0013909791    0.0000011048
   0.0000000189   -0.0013918137   -0.0000001111
   0.0000000392   -0.0013919718    0.0000002103
   0.0000000232   -0.0013919772    0.0000000461
  -0.0000000236   -0.0013919809    0.0000000235
  -0.0000000062   -0.0013919525    0.0000000073
  -0.0000000188   -0.0013920645    0.0000000944
  -0.0000000120   -0.0013919573    0.0000000427
   0.0000001135   -0.0013920110   -0.0000005773
   0.0000000439   -0.0013920197   -0.0000000210
  -0.0000000105   -0.0013919914    0.0000000491
  -0.0000000087   -0.0013919433    0.0000000186
   0.0000000004   -0.0013920191    0.0000000471
  -0.0000000038   -0.0013920082    0.0000000494
  -0.0000000504   -0.0013919142   -0.0000000523
  -0.0000000293   -0.0013919248   -0.0000000199
  -0.0002349843   -0.0018502982   -0.0012668658
   0.0000003828   -0.0014251152    0.0000006455
  -0.0000007540   -0.0014327353    0.0000143788
  -0.0000000030   -0.0014305751    0.0000113640
  -0.0000001856   -0.0014220173    0.0000096859
  -0.0000000141   -0.0014214725    0.0000065975
   0.0000253373   -0.0013703137    0.0000424327
  -0.0000000226   -0.0014253639    0.0000011257
  -0.0000157370   -0.0014166756    0.0001386577
   0.0000000869   -0.0014279976    0.0000081882
   0.0000001291   -0.0014214521    0.0000045790
   0.0000000141   -0.0014212796    0.0000077720
   0.0000001290   -0.0014264487    0.0000002682
   0.0000000143   -0.0014282566    0.0000017426
  -0.0000157734   -0.0016550973   -0.0000674087
   0.0000000866   -0.0014254904    0.0000102256
  -0.0000047155    0.0014224801   -0.0000019117
  -0.0000000085    0.0014234992   -0.0000000131
   0.0000000069    0.0014234325   -0.0000000159
  -0.0000000002    0.0014234120   -0.0000000378
   0.0000000032    0.0014234619   -0.0000000325
   0.0000000007    0.0014234391   -0.0000000115
   0.0000000184    0.0014236175   -0.0000004639
   0.0000000112    0.0014233929   -0.0000000225
   0.0000001227    0.0014234130   -0.0000001846
  -0.0000000180    0.0014234942    0.0000000249
   0.0000000009    0.0014234543   -0.0000000309
   0.0000000011    0.0014234667   -0.0000000633
  -0.0000000007    0.0014234149   -0.0000000145
   0.0000000007    0.0014233803    0.0000000131
  -0.0000000892    0.0014231888    0.0000004258
   0.0000000013    0.0014234258    0.0000000163
   0.0000000246    0.0013919577   -0.0000000447
  -0.0000000000    0.0013919968    0.0000000042
   0.0000000027    0.0013920022    0.0000000047
   0.0000000000    0.0013919940   -0.0000000037
  -0.0000000000    0.0013919944    0.0000000025
  -0.0000000000    0.0013919951    0.0000000002
   0.0000000027    0.0013919814    0.0000000270
   0.0000000000    0.0013919970   -0.0000000014
   0.0000000126    0.0013920002    0.0000000000
   0.0000000007    0.0013919891    0.0000000031
   0.0000000007    0.0013919954   -0.0000000032
   0.0000000001    0.0013919970   -0.0000000012
   0.0000000001    0.0013919932    0.0000000009
  -0.0000000001    0.0013919936   -0.0000000017
   0.0000000039    0.0013919978    0.0000000088
   0.0000000002    0.0013920000   -0.0000000023
  -0.0000051310   -0.0013909230    0.0000011197
  -0.0000000020   -0.0013918298   -0.0000001112
  -0.0000000299   -0.0013919807    0.0000001710
  -0.0000000197   -0.0013919832    0.0000000222
   0.0000000249   -0.0013919427    0.0000000235
   0.0000000049   -0.0013919438    0.0000000073
   0.0000000281   -0.0013920735    0.0000001342
   0.0000000156   -0.0013919634    0.0000000668
  -0.0000001728   -0.0013923183   -0.0000005081
  -0.0000000354   -0.0013920114   -0.0000000821
   0.0000000147   -0.0013919366    0.0000000188
   0.0000000079   -0.0013919333    0.0000000213
   0.0000000007   -0.0013920113    0.0000000405
   0.0000000061   -0.0013920065    0.0000000547
   0.0000001297   -0.0013919692    0.0000001176
   0.0000000406   -0.0013918937    0.0000000007
   0.0000000205   -0.0014234322   -0.0000000067
   0.0000000005   -0.0014234420   -0.0000000048
   0.0000000011   -0.0014234456   -0.0000000046
   0.0000000002   -0.0014234450    0.0000000024
   0.0000000002   -0.0014234409   -0.0000000009
   0.0000000001   -0.0014234425    0.0000000014
   0.0000000064   -0.0014234434    0.0000000182
   0.0000000003   -0.0014234431    0.0000000018
   0.0000000107   -0.0014234412    0.0000000239
   0.0000000005   -0.0014234454   -0.0000000059
   0.0000000004   -0.0014234439   -0.0000000033
   0.0000000001   -0.0014234457    0.0000000010
   0.0000000004   -0.0014234453   -0.0000000009