512  
1    

1    
  0.0100000000000000   0.0000000000000000   0.0000000000000000
  -0.0049264327   -0.0000000001   -0.0000000001
   0.0000114504   -0.0000000001   -0.0000000001
   0.0000001207   -0.0000000001   -0.0000000001
   0.0000112418   -0.0000000001   -0.0000000001
   0.0000040440    0.0000000037   -0.0000000000
   0.0000042935    0.0000045823   -0.0000029494
  -0.0000000541   -0.0000000000    0.0000000763
   0.0000042759   -0.0000045692   -0.0000029699
   0.0000002822   -0.0000000001   -0.0000000001
   0.0000000714   -0.0000000001   -0.0000000001
   0.0000000598   -0.0000000001   -0.0000000001
   0.0000000714   -0.0000000001   -0.0000000001
   0.0000040440   -0.0000000039   -0.0000000002
   0.0000042935   -0.0000045825    0.0000029492
  -0.0000000541   -0.0000000002   -0.0000000765
   0.0000042759    0.0000045690    0.0000029697
   0.0000040440   -0.0000000000    0.0000000037
   0.0000042935   -0.0000029494    0.0000045823
  -0.0000000541    0.0000000763   -0.0000000000
   0.0000042759   -0.0000029699   -0.0000045692
  -0.0000049273    0.0000029477    0.0000029477
   0.0000000800   -0.0000002170   -0.0000002170
   0.0000000282   -0.0000000094   -0.0000000094
   0.0000000801    0.0000002180    0.0000002180
  -0.0000000301   -0.0000000774   -0.0000000001
   0.0000000122    0.0000000093   -0.0000001203
  -0.0000000013   -0.0000000001   -0.0000000001
   0.0000000123    0.0000000093    0.0000001200
  -0.0000049585    0.0000029710   -0.0000029712
   0.0000000802    0.0000002188   -0.0000002190
   0.0000000282   -0.0000000093    0.0000000091
   0.0000000789   -0.0000002192    0.0000002190
   0.0000002822   -0.0000000001   -0.0000000001
   0.0000000714   -0.0000000001   -0.0000000001
   0.0000000598   -0.0000000001   -0.0000000001
   0.0000000714   -0.0000000001   -0.0000000001
  -0.0000000301   -0.0000000001   -0.0000000774
   0.0000000122   -0.0000001203    0.0000000093
  -0.0000000013   -0.0000000001   -0.0000000001
   0.0000000123    0.0000001200    0.0000000093
  -0.0000003127   -0.0000000001   -0.0000000001
  -0.0000000564   -0.0000000001   -0.0000000001
  -0.0000000091   -0.0000000001   -0.0000000001
  -0.0000000565   -0.0000000001   -0.0000000001
  -0.0000000301   -0.0000000001    0.0000000772
   0.0000000122    0.0000001201   -0.0000000095
  -0.0000000013   -0.0000000001   -0.0000000001
   0.0000000123   -0.0000001202   -0.0000000095
   0.0000040440   -0.0000000002   -0.0000000039
   0.0000042935    0.0000029492   -0.0000045825
  -0.0000000541   -0.0000000765   -0.0000000002
   0.0000042759    0.0000029697    0.0000045690
  -0.0000049585   -0.0000029712    0.0000029710
   0.0000000802   -0.0000002190    0.0000002188
   0.0000000282    0.0000000091   -0.0000000093
   0.0000000789    0.0000002190   -0.0000002192
  -0.0000000301    0.0000000772   -0.0000000001
   0.0000000122   -0.0000000095    0.0000001201
  -0.0000000013   -0.0000000001   -0.0000000001
   0.0000000123   -0.0000000095   -0.0000001202
  -0.0000049273   -0.0000029479   -0.0000029479
   0.0000000800    0.0000002168    0.0000002168
   0.0000000282    0.0000000092    0.0000000092
   0.0000000801   -0.0000002182   -0.0000002182
   0.0010371657    0.0003053143    0.0003053143
  -0.0000137905    0.0000079274    0.0000079274
  -0.0000000411    0.0000001159    0.0000001159
   0.0000001304    0.0000004863    0.0000004863
  -0.0000117611    0.0000079170   -0.0000027854
   0.0000118289    0.0000136086    0.0000201847
  -0.0000000928   -0.0000000739   -0.0000001495
  -0.0000010793    0.0000005621   -0.0000008357
  -0.0000003413    0.0000001164   -0.0000000193
  -0.0000001766   -0.0000000740   -0.0000000940
   0.0000000336    0.0000000247    0.0000000541
   0.0000000171   -0.0000000019    0.0000000590
  -0.0000013090    0.0000004827   -0.0000000429
  -0.0000000127    0.0000005599    0.0000000317
  -0.0000000563   -0.0000000020    0.0000000708
   0.0000004056    0.0000002868   -0.0000009727
  -0.0000117611   -0.0000027854    0.0000079170
   0.0000118289    0.0000201847    0.0000136086
  -0.0000000928   -0.0000001495   -0.0000000739
  -0.0000010793   -0.0000008357    0.0000005621
   0.0000138800    0.0000202027    0.0000202027
  -0.0000007759   -0.0000002042   -0.0000002042
   0.0000000037   -0.0000000019   -0.0000000019
  -0.0000000376   -0.0000000291   -0.0000000291
  -0.0000000736   -0.0000001493   -0.0000000938
   0.0000000184   -0.0000000019    0.0000001918
  -0.0000000149    0.0000000211    0.0000000208
  -0.0000000913    0.0000000771   -0.0000001184
  -0.0000002579   -0.0000008366    0.0000000316
   0.0000001698   -0.0000000328    0.0000006049
  -0.0000000067    0.0000000770    0.0000000086
  -0.0000000238    0.0000000565   -0.0000000717
  -0.0000003413   -0.0000000193    0.0000001164
  -0.0000001766   -0.0000000940   -0.0000000740
   0.0000000336    0.0000000541    0.0000000247
   0.0000000171    0.0000000590   -0.0000000019
  -0.0000000736   -0.0000000938   -0.0000001493
   0.0000000184    0.0000001918   -0.0000000019
  -0.0000000149    0.0000000208    0.0000000211
  -0.0000000913   -0.0000001184    0.0000000771
   0.0000002840    0.0000000541    0.0000000541
   0.0000000905    0.0000000206    0.0000000206
   0.0000000048    0.0000000091    0.0000000091
   0.0000000357   -0.0000000258   -0.0000000258
   0.0000001009    0.0000000593    0.0000000707
   0.0000000968   -0.0000001189    0.0000000093
  -0.0000000001   -0.0000000256   -0.0000000087
  -0.0000000027    0.0000000631   -0.0000000130
  -0.0000013090   -0.0000000429    0.0000004827
  -0.0000000127    0.0000000317    0.0000005599
  -0.0000000563    0.0000000708   -0.0000000020
   0.0000004056   -0.0000009727    0.0000002868
  -0.0000002579    0.0000000316   -0.0000008366
   0.0000001698    0.0000006049   -0.0000000328
  -0.0000000067    0.0000000086    0.0000000770
  -0.0000000238   -0.0000000717    0.0000000565
   0.0000001009    0.0000000707    0.0000000593
   0.0000000968    0.0000000093   -0.0000001189
  -0.0000000001   -0.0000000087   -0.0000000256
  -0.0000000027   -0.0000000130    0.0000000631
   0.0000013981   -0.0000009681   -0.0000009681
  -0.0000000206   -0.0000000713   -0.0000000713
  -0.0000000075   -0.0000000135   -0.0000000135
  -0.0000000179    0.0000000515    0.0000000515
  -0.0001103031    0.0000689636    0.0000689636
  -0.0000005884    0.0000015346    0.0000015346
   0.0000000231    0.0000000411    0.0000000411
  -0.0000005803    0.0000009883    0.0000009883
   0.0000003295   -0.0000003268   -0.0000001351
  -0.0000000159    0.0000000056   -0.0000002371
  -0.0000000150   -0.0000000253    0.0000000133
  -0.0000000160    0.0000001155    0.0000003370
   0.0000003311   -0.0000003257    0.0000001341
  -0.0000000163    0.0000001180   -0.0000003368
  -0.0000000149   -0.0000000228   -0.0000000132
  -0.0000000172    0.0000000068    0.0000002380
  -0.0001111382    0.0000695363   -0.0000695362
  -0.0000005996    0.0000010032   -0.0000010031
   0.0000000230    0.0000000412   -0.0000000411
  -0.0000005929    0.0000015434   -0.0000015433
   0.0000003295   -0.0000001351   -0.0000003268
  -0.0000000159   -0.0000002371    0.0000000056
  -0.0000000150    0.0000000133   -0.0000000253
  -0.0000000160    0.0000003370    0.0000001155
  -0.0000005528    0.0000002421    0.0000002421
  -0.0000000194   -0.0000000570   -0.0000000570
  -0.0000000005   -0.0000000021   -0.0000000021
  -0.0000000195    0.0000000383    0.0000000383
  -0.0000005555    0.0000002458   -0.0000002483
  -0.0000000194    0.0000000410   -0.0000000434
  -0.0000000005    0.0000000004   -0.0000000029
  -0.0000000195   -0.0000000546    0.0000000521
   0.0000003311   -0.0000001340    0.0000003232
  -0.0000000163    0.0000003368   -0.0000001204
  -0.0000000149    0.0000000133    0.0000000203
  -0.0000000172   -0.0000002379   -0.0000000093
   0.0000003311    0.0000001341   -0.0000003257
  -0.0000000163   -0.0000003367    0.0000001180
  -0.0000000149   -0.0000000132   -0.0000000228
  -0.0000000172    0.0000002380    0.0000000068
  -0.0000005555   -0.0000002483    0.0000002458
  -0.0000000194   -0.0000000434    0.0000000410
  -0.0000000005   -0.0000000029    0.0000000004
  -0.0000000195    0.0000000521   -0.0000000546
  -0.0000005528   -0.0000002445   -0.0000002445
  -0.0000000194    0.0000000546    0.0000000546
  -0.0000000005   -0.0000000003   -0.0000000003
  -0.0000000195   -0.0000000408   -0.0000000408
   0.0000003295    0.0000001352    0.0000003243
  -0.0000000159    0.0000002372   -0.0000000081
  -0.0000000150   -0.0000000132    0.0000000229
  -0.0000000160   -0.0000003369   -0.0000001179
  -0.0001111382   -0.0000695362    0.0000695363
  -0.0000005996   -0.0000010031    0.0000010032
   0.0000000230   -0.0000000411    0.0000000412
  -0.0000005929   -0.0000015433    0.0000015434
   0.0000003311    0.0000003232   -0.0000001340
  -0.0000000163   -0.0000001204    0.0000003368
  -0.0000000149    0.0000000203    0.0000000133
  -0.0000000172   -0.0000000093   -0.0000002379
   0.0000003295    0.0000003243    0.0000001352
  -0.0000000159   -0.0000000081    0.0000002372
  -0.0000000150    0.0000000229   -0.0000000132
  -0.0000000160   -0.0000001179   -0.0000003369
  -0.0001103031   -0.0000689635   -0.0000689635
  -0.0000005884   -0.0000015345   -0.0000015345
   0.0000000231   -0.0000000410   -0.0000000410
  -0.0000005803   -0.0000009882   -0.0000009882
   0.0010371657   -0.0003053143   -0.0003053143
  -0.0000137905   -0.0000079273   -0.0000079273
  -0.0000000411   -0.0000001158   -0.0000001158
   0.0000001304   -0.0000004863   -0.0000004863
  -0.0000013090   -0.0000004801    0.0000000429
  -0.0000000127   -0.0000005572   -0.0000000317
  -0.0000000563    0.0000000046   -0.0000000707
   0.0000004056   -0.0000002841    0.0000009728
  -0.0000003413   -0.0000001163    0.0000000193
  -0.0000001766    0.0000000741    0.0000000941
   0.0000000336   -0.0000000246   -0.0000000540
   0.0000000171    0.0000000020   -0.0000000589
  -0.0000117611   -0.0000079169    0.0000027855
   0.0000118289   -0.0000136086   -0.0000201847
  -0.0000000928    0.0000000740    0.0000001496
  -0.0000010793   -0.0000005620    0.0000008357
  -0.0000013090    0.0000000429   -0.0000004801
  -0.0000000127   -0.0000000317   -0.0000005572
  -0.0000000563   -0.0000000707    0.0000000046
   0.0000004056    0.0000009728   -0.0000002841
   0.0000013981    0.0000009707    0.0000009707
  -0.0000000206    0.0000000739    0.0000000739
  -0.0000000075    0.0000000161    0.0000000161
  -0.0000000179   -0.0000000489   -0.0000000489
   0.0000001009   -0.0000000706   -0.0000000567
   0.0000000968   -0.0000000092    0.0000001215
  -0.0000000001    0.0000000088    0.0000000282
  -0.0000000027    0.0000000131   -0.0000000605
  -0.0000002579   -0.0000000316    0.0000008392
   0.0000001698   -0.0000006048    0.0000000355
  -0.0000000067   -0.0000000085   -0.0000000744
  -0.0000000238    0.0000000717   -0.0000000539
  -0.0000003413    0.0000000193   -0.0000001163
  -0.0000001766    0.0000000941    0.0000000741
   0.0000000336   -0.0000000540   -0.0000000246
   0.0000000171   -0.0000000589    0.0000000020
   0.0000001009   -0.0000000567   -0.0000000706
   0.0000000968    0.0000001215   -0.0000000092
  -0.0000000001    0.0000000282    0.0000000088
  -0.0000000027   -0.0000000605    0.0000000131
   0.0000002840   -0.0000000541   -0.0000000541
   0.0000000905   -0.0000000205   -0.0000000205
   0.0000000048   -0.0000000091   -0.0000000091
   0.0000000357    0.0000000258    0.0000000258
  -0.0000000736    0.0000000938    0.0000001494
   0.0000000184   -0.0000001917    0.0000000019
  -0.0000000149   -0.0000000207   -0.0000000210
  -0.0000000913    0.0000001185   -0.0000000771
  -0.0000117611    0.0000027855   -0.0000079169
   0.0000118289   -0.0000201847   -0.0000136086
  -0.0000000928    0.0000001496    0.0000000740
  -0.0000010793    0.0000008357   -0.0000005620
  -0.0000002579    0.0000008392   -0.0000000316
   0.0000001698    0.0000000354   -0.0000006048
  -0.0000000067   -0.0000000744   -0.0000000085
  -0.0000000238   -0.0000000539    0.0000000717
  -0.0000000736    0.0000001494    0.0000000938
   0.0000000184    0.0000000019   -0.0000001917
  -0.0000000149   -0.0000000210   -0.0000000207
  -0.0000000913   -0.0000000771    0.0000001185
   0.0000138800   -0.0000202026   -0.0000202026
  -0.0000007759    0.0000002043    0.0000002043
   0.0000000037    0.0000000019    0.0000000019
  -0.0000000376    0.0000000292    0.0000000292
   0.0001439370   -0.0000693177    0.0001511885
  -0.0000000663    0.0000003232    0.0000000132
  -0.0000000642    0.0000003252   -0.0000000142
   0.0001425146   -0.0000691828   -0.0001493826
   0.0000012027   -0.0000009919   -0.0000011348
  -0.0000001627   -0.0000001175    0.0000000714
  -0.0000001605   -0.0000000076    0.0000000619
   0.0000011939   -0.0000015433    0.0000011304
   0.0000001681   -0.0000000412   -0.0000001398
  -0.0000000037    0.0000000231   -0.0000000647
  -0.0000000011    0.0000000231    0.0000000649
   0.0000001682   -0.0000000415    0.0000001397
   0.0000011966   -0.0000015349   -0.0000011382
  -0.0000001630   -0.0000000069   -0.0000000618
  -0.0000001606   -0.0000001181   -0.0000000715
   0.0000011872   -0.0000009998    0.0000011334
   0.0000006865    0.0000001343    0.0000000117
   0.0000001558   -0.0000002447    0.0000002130
   0.0000001581   -0.0000002470   -0.0000002179
   0.0000006872    0.0000001351   -0.0000000157
  -0.0000000374   -0.0000003362   -0.0000000643
   0.0000000151   -0.0000000406   -0.0000000003
   0.0000000179    0.0000000548   -0.0000000044
  -0.0000000379    0.0000002372   -0.0000000742
  -0.0000001314   -0.0000000139   -0.0000000673
  -0.0000000133   -0.0000000007   -0.0000000341
  -0.0000000107   -0.0000000007    0.0000000292
  -0.0000001316   -0.0000000138    0.0000000622
  -0.0000000374    0.0000002380    0.0000000694
   0.0000000153    0.0000000549   -0.0000000008
   0.0000000178   -0.0000000407   -0.0000000047
  -0.0000000388   -0.0000003373    0.0000000600
   0.0000006865   -0.0000001345   -0.0000000142
   0.0000001558    0.0000002445   -0.0000002154
   0.0000001581    0.0000002468    0.0000002154
   0.0000006872   -0.0000001353    0.0000000132
  -0.0000000374   -0.0000002382   -0.0000000719
   0.0000000153   -0.0000000551   -0.0000000017
   0.0000000178    0.0000000405    0.0000000022
  -0.0000000388    0.0000003371   -0.0000000625
  -0.0000001314    0.0000000137    0.0000000648
  -0.0000000133    0.0000000005    0.0000000317
  -0.0000000107    0.0000000005   -0.0000000316
  -0.0000001316    0.0000000136   -0.0000000647
  -0.0000000374    0.0000003360    0.0000000619
   0.0000000151    0.0000000404   -0.0000000021
   0.0000000179   -0.0000000550    0.0000000019
  -0.0000000379   -0.0000002374    0.0000000717
   0.0001439370    0.0000693175   -0.0001511884
  -0.0000000663   -0.0000003234   -0.0000000131
  -0.0000000642   -0.0000003254    0.0000000143
   0.0001425146    0.0000691826    0.0001493826
   0.0000011966    0.0000015347    0.0000011383
  -0.0000001630    0.0000000067    0.0000000619
  -0.0000001606    0.0000001179    0.0000000716
   0.0000011872    0.0000009996   -0.0000011333
   0.0000001681    0.0000000410    0.0000001399
  -0.0000000037   -0.0000000233    0.0000000648
  -0.0000000011   -0.0000000233   -0.0000000648
   0.0000001682    0.0000000413   -0.0000001396
   0.0000012027    0.0000009917    0.0000011349
  -0.0000001627    0.0000001173   -0.0000000713
  -0.0000001605    0.0000000074   -0.0000000618
   0.0000011939    0.0000015431   -0.0000011303
   0.0010467375   -0.0003143750    0.0003143751
   0.0000001302   -0.0000004822    0.0000004823
  -0.0000000407   -0.0000001169    0.0000001170
  -0.0000137186   -0.0000079139    0.0000079139
  -0.0000117969   -0.0000079242   -0.0000028001
  -0.0000010727   -0.0000005604   -0.0000008336
  -0.0000000927    0.0000000738   -0.0000001502
   0.0000116468   -0.0000133700    0.0000202584
  -0.0000003399   -0.0000001161   -0.0000000186
   0.0000000197    0.0000000015    0.0000000593
   0.0000000341   -0.0000000250    0.0000000552
  -0.0000001767    0.0000000742   -0.0000000941
  -0.0000013096   -0.0000004856   -0.0000000428
   0.0000004124   -0.0000002913   -0.0000009642
  -0.0000000561    0.0000000017    0.0000000711
  -0.0000000123   -0.0000005628    0.0000000329
  -0.0000013096    0.0000000429    0.0000004883
   0.0000004124    0.0000009642    0.0000002939
  -0.0000000561   -0.0000000710    0.0000000009
  -0.0000000123   -0.0000000328    0.0000005654
  -0.0000002574   -0.0000000324   -0.0000008297
  -0.0000000211    0.0000000708    0.0000000589
  -0.0000000064   -0.0000000088    0.0000000804
   0.0000001663   -0.0000006025   -0.0000000244
   0.0000001010   -0.0000000709    0.0000000620
   0.0000000002    0.0000000128    0.0000000660
   0.0000000003    0.0000000084   -0.0000000226
   0.0000000971   -0.0000000093   -0.0000001153
   0.0000014087    0.0000009697   -0.0000009671
  -0.0000000148   -0.0000000523    0.0000000549
  -0.0000000073    0.0000000132   -0.0000000106
  -0.0000000201    0.0000000715   -0.0000000689
  -0.0000003399    0.0000000187    0.0000001162
   0.0000000197   -0.0000000592   -0.0000000014
   0.0000000341   -0.0000000551    0.0000000251
  -0.0000001767    0.0000000941   -0.0000000741
  -0.0000000736    0.0000000940   -0.0000001496
  -0.0000000879    0.0000001182    0.0000000771
  -0.0000000146   -0.0000000211    0.0000000214
   0.0000000189   -0.0000001926   -0.0000000014
   0.0000002852   -0.0000000548    0.0000000548
   0.0000000386    0.0000000255   -0.0000000255
   0.0000000051   -0.0000000094    0.0000000095
   0.0000000908   -0.0000000208    0.0000000209
   0.0000001010   -0.0000000594    0.0000000710
   0.0000000002   -0.0000000633   -0.0000000127
   0.0000000003    0.0000000253   -0.0000000084
   0.0000000971    0.0000001179    0.0000000094
  -0.0000117969    0.0000028001    0.0000079242
  -0.0000010727    0.0000008337    0.0000005605
  -0.0000000927    0.0000001503   -0.0000000738
   0.0000116468   -0.0000202583    0.0000133700
   0.0000140720   -0.0000202421    0.0000202421
  -0.0000000352    0.0000000308   -0.0000000308
   0.0000000040    0.0000000014   -0.0000000013
  -0.0000007792    0.0000002030   -0.0000002029
  -0.0000000736    0.0000001496   -0.0000000940
  -0.0000000879   -0.0000000770   -0.0000001182
  -0.0000000146   -0.0000000214    0.0000000212
   0.0000000189    0.0000000015    0.0000001927
  -0.0000002574    0.0000008323    0.0000000325
  -0.0000000211   -0.0000000563   -0.0000000707
  -0.0000000064   -0.0000000778    0.0000000088
   0.0000001663    0.0000000270    0.0000006026
   0.0001439370    0.0001511885   -0.0000693177
  -0.0000000663    0.0000000132    0.0000003232
  -0.0000000642   -0.0000000142    0.0000003252
   0.0001425146   -0.0001493826   -0.0000691828
   0.0000006865    0.0000000117    0.0000001343
   0.0000001558    0.0000002130   -0.0000002447
   0.0000001581   -0.0000002179   -0.0000002470
   0.0000006872   -0.0000000157    0.0000001351
   0.0000006865   -0.0000000142   -0.0000001345
   0.0000001558   -0.0000002154    0.0000002445
   0.0000001581    0.0000002154    0.0000002468
   0.0000006872    0.0000000132   -0.0000001353
   0.0001439370   -0.0001511884    0.0000693175
  -0.0000000663   -0.0000000131   -0.0000003234
  -0.0000000642    0.0000000143   -0.0000003254
   0.0001425146    0.0001493826    0.0000691826
   0.0000012027   -0.0000011348   -0.0000009919
  -0.0000001627    0.0000000714   -0.0000001175
  -0.0000001605    0.0000000619   -0.0000000076
   0.0000011939    0.0000011304   -0.0000015433
  -0.0000000374   -0.0000000643   -0.0000003362
   0.0000000151   -0.0000000003   -0.0000000406
   0.0000000179   -0.0000000044    0.0000000548
  -0.0000000379   -0.0000000742    0.0000002372
  -0.0000000374   -0.0000000719   -0.0000002382
   0.0000000153   -0.0000000017   -0.0000000551
   0.0000000178    0.0000000022    0.0000000405
  -0.0000000388   -0.0000000625    0.0000003371
   0.0000011966    0.0000011383    0.0000015347
  -0.0000001630    0.0000000619    0.0000000067
  -0.0000001607    0.0000000716    0.0000001179
   0.0000011872   -0.0000011333    0.0000009996
   0.0000001681   -0.0000001398   -0.0000000412
  -0.0000000037   -0.0000000647    0.0000000231
  -0.0000000011    0.0000000649    0.0000000231
   0.0000001682    0.0000001397   -0.0000000415
  -0.0000001314   -0.0000000673   -0.0000000139
  -0.0000000133   -0.0000000341   -0.0000000007
  -0.0000000107    0.0000000292   -0.0000000007
  -0.0000001316    0.0000000622   -0.0000000138
  -0.0000001314    0.0000000648    0.0000000137
  -0.0000000133    0.0000000317    0.0000000005
  -0.0000000107   -0.0000000316    0.0000000005
  -0.0000001316   -0.0000000647    0.0000000136
   0.0000001681    0.0000001399    0.0000000410
  -0.0000000037    0.0000000648   -0.0000000233
  -0.0000000011   -0.0000000648   -0.0000000233
   0.0000001682   -0.0000001396    0.0000000413
   0.0000011966   -0.0000011382   -0.0000015349
  -0.0000001630   -0.0000000618   -0.0000000069
  -0.0000001606   -0.0000000715   -0.0000001181
   0.0000011872    0.0000011334   -0.0000009998
  -0.0000000374    0.0000000694    0.0000002380
   0.0000000153   -0.0000000008    0.0000000549
   0.0000000178   -0.0000000047   -0.0000000407
  -0.0000000388    0.0000000600   -0.0000003373
  -0.0000000374    0.0000000619    0.0000003360
   0.0000000151   -0.0000000021    0.0000000404
   0.0000000179    0.0000000019   -0.0000000550
  -0.0000000379    0.0000000717   -0.0000002374
   0.0000012027    0.0000011349    0.0000009917
  -0.0000001627   -0.0000000713    0.0000001173
  -0.0000001605   -0.0000000618    0.0000000074
   0.0000011939   -0.0000011303    0.0000015431
   0.0010467375    0.0003143751   -0.0003143750
   0.0000001302    0.0000004823   -0.0000004822
  -0.0000000407    0.0000001170   -0.0000001169
  -0.0000137186    0.0000079139   -0.0000079139
  -0.0000013096    0.0000004883    0.0000000429
   0.0000004124    0.0000002939    0.0000009642
  -0.0000000561    0.0000000009   -0.0000000710
  -0.0000000123    0.0000005654   -0.0000000328
  -0.0000003399    0.0000001162    0.0000000187
   0.0000000197   -0.0000000014   -0.0000000592
   0.0000000341    0.0000000251   -0.0000000551
  -0.0000001767   -0.0000000741    0.0000000941
  -0.0000117969    0.0000079242    0.0000028001
  -0.0000010727    0.0000005605    0.0000008337
  -0.0000000927   -0.0000000738    0.0000001503
   0.0000116468    0.0000133700   -0.0000202583
  -0.0000117969   -0.0000028001   -0.0000079242
  -0.0000010727   -0.0000008336   -0.0000005604
  -0.0000000927   -0.0000001502    0.0000000738
   0.0000116468    0.0000202584   -0.0000133700
  -0.0000002574   -0.0000008297   -0.0000000324
  -0.0000000211    0.0000000589    0.0000000708
  -0.0000000064    0.0000000804   -0.0000000088
   0.0000001663   -0.0000000244   -0.0000006025
  -0.0000000736   -0.0000001496    0.0000000940
  -0.0000000879    0.0000000771    0.0000001182
  -0.0000000146    0.0000000214   -0.0000000211
   0.0000000189   -0.0000000014   -0.0000001926
   0.0000140720    0.0000202421   -0.0000202421
  -0.0000000352   -0.0000000308    0.0000000308
   0.0000000040   -0.0000000013    0.0000000014
  -0.0000007792   -0.0000002029    0.0000002030
  -0.0000003399   -0.0000000186   -0.0000001161
   0.0000000197    0.0000000593    0.0000000015
   0.0000000341    0.0000000552   -0.0000000250
  -0.0000001767   -0.0000000941    0.0000000742
   0.0000001010    0.0000000620   -0.0000000709
   0.0000000002    0.0000000660    0.0000000128
   0.0000000003   -0.0000000226    0.0000000084
   0.0000000971   -0.0000001153   -0.0000000093
   0.0000002852    0.0000000548   -0.0000000548
   0.0000000386   -0.0000000255    0.0000000255
   0.0000000051    0.0000000095   -0.0000000094
   0.0000000908    0.0000000209   -0.0000000208
  -0.0000000736   -0.0000000940    0.0000001496
  -0.0000000879   -0.0000001182   -0.0000000770
  -0.0000000146    0.0000000212   -0.0000000214
   0.0000000189    0.0000001927    0.0000000015
  -0.0000013096   -0.0000000428   -0.0000004856
   0.0000004124   -0.0000009642   -0.0000002913
  -0.0000000561    0.0000000711    0.0000000017
  -0.0000000123    0.0000000329   -0.0000005628
   0.0000014087   -0.0000009671    0.0000009697
  -0.0000000148    0.0000000549   -0.0000000523
  -0.0000000073   -0.0000000106    0.0000000132
  -0.0000000201   -0.0000000689    0.0000000715
   0.0000001010    0.0000000710   -0.0000000594
   0.0000000002   -0.0000000127   -0.0000000633
   0.0000000003   -0.0000000084    0.0000000253
   0.0000000971    0.0000000094    0.0000001179
  -0.0000002574    0.0000000325    0.0000008323
  -0.0000000211   -0.0000000707   -0.0000000563
  -0.0000000064    0.0000000088   -0.0000000778
   0.0000001663    0.0000006026    0.0000000270