512  
4    

1    
  0.0045801749590462   0.0058194991440612   0.0067197787952281
  -0.0006625966   -0.0042617098   -0.0063676920
   0.0000001512    0.0013770149    0.0000047124
   0.0000004664    0.0013455557    0.0000168323
  -0.0000000063    0.0013669173    0.0000134958
  -0.0000000288    0.0013620852    0.0000021132
  -0.0000000095    0.0013654773    0.0000007086
   0.0000004481    0.0013606835    0.0000036491
  -0.0000000054    0.0013770820    0.0000046583
  -0.0000123268    0.0017766575    0.0002481658
  -0.0000002536    0.0013595474    0.0000059538
  -0.0000002467    0.0013661974   -0.0000010122
  -0.0000000042    0.0013625895    0.0000003159
   0.0000000268    0.0013739555    0.0000023146
   0.0000000015    0.0013777099    0.0000073921
   0.0000028472    0.0013631660    0.0000395846
   0.0000000016    0.0013745697    0.0000106504
   0.0000039750   -0.0013744677   -0.0000012980
  -0.0000000220   -0.0013734958    0.0000001324
  -0.0000000433   -0.0013733030   -0.0000002314
  -0.0000000276   -0.0013732966   -0.0000000573
   0.0000000276   -0.0013733002   -0.0000000336
   0.0000000066   -0.0013733328   -0.0000000191
   0.0000000209   -0.0013732015   -0.0000000972
   0.0000000143   -0.0013733215   -0.0000000481
  -0.0000000455   -0.0013732408    0.0000006573
  -0.0000000521   -0.0013732424    0.0000000292
   0.0000000129   -0.0013732798   -0.0000000591
   0.0000000092   -0.0013733305   -0.0000000263
  -0.0000000004   -0.0013732548   -0.0000000429
   0.0000000047   -0.0013732621   -0.0000000489
   0.0000000588   -0.0013733592    0.0000000789
   0.0000000336   -0.0013733522    0.0000000219
   0.0002585579   -0.0011650519    0.0017066256
  -0.0000004044   -0.0014096685   -0.0000006213
   0.0000008035   -0.0014017678   -0.0000148076
   0.0000000065   -0.0014039801   -0.0000117117
   0.0000001981   -0.0014128259   -0.0000099659
   0.0000000150   -0.0014134125   -0.0000067931
  -0.0000269333   -0.0014657627   -0.0000431695
   0.0000000260   -0.0014094085   -0.0000011449
   0.0000180905   -0.0014180401   -0.0001458941
  -0.0000001016   -0.0014066100   -0.0000084285
  -0.0000001483   -0.0014134144   -0.0000047345
  -0.0000000165   -0.0014136115   -0.0000080502
  -0.0000001483   -0.0014082927   -0.0000002626
  -0.0000000163   -0.0014064203   -0.0000017888
   0.0000180494   -0.0011698214    0.0000701101
  -0.0000001019   -0.0014092753   -0.0000105403
   0.0000059680    0.0014126231    0.0000023966
   0.0000000099    0.0014113383    0.0000000123
  -0.0000000076    0.0014114176    0.0000000232
   0.0000000003    0.0014114363    0.0000000444
  -0.0000000040    0.0014113870    0.0000000483
  -0.0000000008    0.0014114127    0.0000000278
  -0.0000000273    0.0014112133    0.0000004957
  -0.0000000135    0.0014114607    0.0000000281
  -0.0000001273    0.0014114451    0.0000002009
   0.0000000216    0.0014113387   -0.0000000332
  -0.0000000009    0.0014114021    0.0000000360
  -0.0000000013    0.0014113681    0.0000000737
   0.0000000007    0.0014114471    0.0000000182
  -0.0000000009    0.0014114682   -0.0000000089
   0.0000001130    0.0014116941   -0.0000004784
  -0.0000000021    0.0014114199   -0.0000000170
  -0.0000000272    0.0013733164    0.0000000441
   0.0000000001    0.0013732751   -0.0000000069
  -0.0000000030    0.0013732692   -0.0000000077
   0.0000000000    0.0013732773    0.0000000016
   0.0000000000    0.0013732830   -0.0000000098
   0.0000000001    0.0013732819   -0.0000000073
  -0.0000000029    0.0013732916   -0.0000000246
   0.0000000000    0.0013732750    0.0000000056
  -0.0000000138    0.0013732715   -0.0000000016
  -0.0000000007    0.0013732828   -0.0000000052
  -0.0000000007    0.0013732749    0.0000000020
  -0.0000000001    0.0013732732    0.0000000001
  -0.0000000000    0.0013732841    0.0000000102
   0.0000000001    0.0013732838    0.0000000131
  -0.0000000042    0.0013732739   -0.0000000088
  -0.0000000001    0.0013732709    0.0000000031
   0.0000040110   -0.0013745043   -0.0000012848
   0.0000000022   -0.0013734763    0.0000001323
   0.0000000338   -0.0013732929   -0.0000001875
   0.0000000233   -0.0013732895   -0.0000000286
  -0.0000000289   -0.0013733447   -0.0000000336
  -0.0000000051   -0.0013733420   -0.0000000191
  -0.0000000303   -0.0013731915   -0.0000001407
  -0.0000000186   -0.0013733145   -0.0000000767
   0.0000001874   -0.0013729253    0.0000005406
   0.0000000421   -0.0013732522    0.0000001021
  -0.0000000176   -0.0013733450   -0.0000000235
  -0.0000000081   -0.0013733410   -0.0000000290
  -0.0000000010   -0.0013732643   -0.0000000352
  -0.0000000076   -0.0013732642   -0.0000000555
  -0.0000001487   -0.0013732971   -0.0000001168
  -0.0000000468   -0.0013733881   -0.0000000018
  -0.0000000227   -0.0014114136    0.0000000063
  -0.0000000005   -0.0014114033    0.0000000033
  -0.0000000012   -0.0014113991    0.0000000033
  -0.0000000002   -0.0014113990   -0.0000000041
  -0.0000000003   -0.0014114108    0.0000000118
  -0.0000000001   -0.0014114082    0.0000000092
  -0.0000000070   -0.0014114020   -0.0000000187
  -0.0000000004   -0.0014114015   -0.0000000015
  -0.0000000118   -0.0014114045   -0.0000000287
  -0.0000000006   -0.0014113998    0.0000000026
  -0.0000000005   -0.0014114015    0.0000000013
  -0.0000000002   -0.0014113996   -0.0000000035
  -0.0000000005   -0.0014114000    0.0000000044
  -0.0000000002   -0.0014113992   -0.0000000009
  -0.0000000118   -0.0014113520    0.0000000189
  -0.0000000006   -0.0014114024    0.0000000002
   0.0000007927    0.0014106543   -0.0000010208
  -0.0000000111    0.0014113367    0.0000000101
  -0.0000000031    0.0014114548    0.0000000132
   0.0000000011    0.0014114301    0.0000000186
   0.0000000034    0.0014113900    0.0000000784
   0.0000000010    0.0014114110    0.0000000382
  -0.0000000215    0.0014111681    0.0000004450
   0.0000000178    0.0014114896    0.0000000310
   0.0000000974    0.0014115156    0.0000001039
  -0.0000000278    0.0014113191   -0.0000000744
  -0.0000000005    0.0014114142    0.0000000498
   0.0000000022    0.0014113883    0.0000000820
  -0.0000000021    0.0014114592    0.0000000044
   0.0000000018    0.0014114881   -0.0000000173
  -0.0000001427    0.0014117642   -0.0000003812
  -0.0000000041    0.0014114005    0.0000000243
   0.0000027540    0.0014142765    0.0000111844
   0.0000027443    0.0014142765    0.0000111031
  -0.0000002271    0.0013718165    0.0000281549
  -0.0000002232    0.0013536121    0.0000123600
  -0.0000000219    0.0013621620    0.0000016372
  -0.0000000218    0.0013621665    0.0000016323
  -0.0000002229    0.0013766120   -0.0000076279
  -0.0000002239    0.0013947462    0.0000081807
  -0.0000002559    0.0013723140    0.0000170579
  -0.0000113173    0.0012266227   -0.0002279549
  -0.0000000041    0.0013662151    0.0000034680
  -0.0000002454    0.0013662570   -0.0000009642
   0.0000000016    0.0013751697    0.0000051735
   0.0000000266    0.0013742216    0.0000025484
   0.0000000028    0.0013709571    0.0000075188
   0.0000028626    0.0013967753    0.0000685987
  -0.0000002419   -0.0013733759    0.0000001845
   0.0000000914   -0.0013735264    0.0000000952
  -0.0000000606   -0.0013733919   -0.0000000287
  -0.0000000508   -0.0013732937   -0.0000001091
   0.0000000305   -0.0013733047    0.0000000123
   0.0000000182   -0.0013733453   -0.0000000246
  -0.0000000125   -0.0013734093   -0.0000000099
   0.0000000484   -0.0013733421   -0.0000000811
  -0.0000000529   -0.0013733563    0.0000000322
  -0.0000001912   -0.0013728562   -0.0000004417
   0.0000000080   -0.0013733352   -0.0000000261
   0.0000000158   -0.0013733133   -0.0000000772
   0.0000000031   -0.0013732752   -0.0000000272
  -0.0000000014   -0.0013732568   -0.0000000384
   0.0000000224   -0.0013733002    0.0000000913
   0.0000002236   -0.0013731118    0.0000003075
  -0.0000270196   -0.0014318326    0.0000532341
  -0.0000003478   -0.0013983116    0.0000183656
   0.0000001243   -0.0014021242   -0.0000201424
  -0.0000004385   -0.0014005459   -0.0000155468
   0.0000000082   -0.0014125485   -0.0000094357
   0.0000001131   -0.0014160863   -0.0000115922
  -0.0000004987   -0.0014000074    0.0000179641
   0.0000010200   -0.0014131099   -0.0000002547
   0.0000014103   -0.0014090292   -0.0000110417
  -0.0000276607   -0.0013472898   -0.0000508753
  -0.0000000205   -0.0014162477   -0.0000101008
  -0.0000003968   -0.0014130852   -0.0000044837
  -0.0000000204   -0.0014031260    0.0000013612
  -0.0000003970   -0.0014079217    0.0000000272
   0.0000014026   -0.0013977247   -0.0000009662
  -0.0000277304   -0.0014053748   -0.0001006426
  -0.0000000337    0.0014113683    0.0000001763
   0.0000000979    0.0014110384    0.0000000349
  -0.0000000009    0.0014114272    0.0000000275
   0.0000000001    0.0014114767    0.0000001108
   0.0000000002    0.0014114085   -0.0000000388
  -0.0000000038    0.0014113818    0.0000000688
  -0.0000000150    0.0014114525   -0.0000000161
   0.0000000198    0.0014115721   -0.0000000735
  -0.0000000055    0.0014113900   -0.0000000425
  -0.0000001065    0.0014114491    0.0000002225
  -0.0000000002    0.0014113848    0.0000000502
  -0.0000000028    0.0014113952    0.0000000583
  -0.0000000066    0.0014114455   -0.0000000130
  -0.0000000008    0.0014114025    0.0000000209
   0.0000000090    0.0014114077   -0.0000000774
   0.0000000616    0.0014115851    0.0000003288
  -0.0000000041    0.0013732571   -0.0000000072
  -0.0000000041    0.0013732568   -0.0000000066
  -0.0000000007    0.0013732705    0.0000000028
  -0.0000000007    0.0013732677    0.0000000005
   0.0000000001    0.0013732743   -0.0000000085
   0.0000000001    0.0013732740   -0.0000000089
  -0.0000000007    0.0013732651    0.0000000060
  -0.0000000007    0.0013732673    0.0000000081
  -0.0000000007    0.0013732788   -0.0000000098
  -0.0000000137    0.0013732947    0.0000000187
  -0.0000000001    0.0013732733    0.0000000006
  -0.0000000007    0.0013732673   -0.0000000040
   0.0000000001    0.0013732829    0.0000000132
  -0.0000000000    0.0013732843    0.0000000111
  -0.0000000001    0.0013732740    0.0000000052
  -0.0000000041    0.0013732641   -0.0000000170
   0.0000001290   -0.0013730831    0.0000001843
  -0.0000001866   -0.0013737446    0.0000000949
   0.0000000517   -0.0013733410    0.0000000039
   0.0000000405   -0.0013733002   -0.0000000409
  -0.0000000303   -0.0013733526    0.0000000123
  -0.0000000180   -0.0013733738   -0.0000000246
   0.0000000037   -0.0013733587   -0.0000000429
  -0.0000000585   -0.0013733485   -0.0000001485
   0.0000000408   -0.0013732975    0.0000000454
   0.0000003289   -0.0013728958   -0.0000000504
  -0.0000000065   -0.0013733511   -0.0000000222
  -0.0000000214   -0.0013733707   -0.0000000528
  -0.0000000056   -0.0013732775   -0.0000000313
   0.0000000002   -0.0013732620   -0.0000000328
  -0.0000000349   -0.0013733055    0.0000000568
  -0.0000003351   -0.0013732727    0.0000000656
  -0.0000000072   -0.0014114176   -0.0000000155
  -0.0000000028   -0.0014113929    0.0000000128
  -0.0000000006   -0.0014113935   -0.0000000009
  -0.0000000005   -0.0014113922   -0.0000000046
  -0.0000000002   -0.0014114035    0.0000000107
  -0.0000000002   -0.0014114043    0.0000000083
  -0.0000000028   -0.0014113838    0.0000000085
  -0.0000000013   -0.0014113920   -0.0000000079
  -0.0000000013   -0.0014113993    0.0000000049
  -0.0000000073   -0.0014114072    0.0000000003
  -0.0000000002   -0.0014114034   -0.0000000034
  -0.0000000004   -0.0014114017    0.0000000010
  -0.0000000002   -0.0014113989    0.0000000020
  -0.0000000004   -0.0014114035    0.0000000009
  -0.0000000013   -0.0014114090   -0.0000000035
  -0.0000000073   -0.0014114229   -0.0000000131
   0.0000000113    0.0014113394    0.0000000959
  -0.0000001413    0.0014110550    0.0000001316
   0.0000000078    0.0014114280   -0.0000000294
  -0.0000000082    0.0014114936    0.0000000610
   0.0000000018    0.0014114069   -0.0000000014
   0.0000000029    0.0014113789    0.0000000929
   0.0000000128    0.0014114670   -0.0000000189
  -0.0000000341    0.0014116620   -0.0000000946
   0.0000000076    0.0014113937   -0.0000000809
  -0.0000000946    0.0014114807    0.0000001043
   0.0000000025    0.0014113929    0.0000000552
   0.0000000023    0.0014114060    0.0000000741
   0.0000000090    0.0014114535   -0.0000000180
   0.0000000003    0.0014114133    0.0000000050
  -0.0000000070    0.0014114115   -0.0000000388
  -0.0000002631    0.0014116165    0.0000004450
  -0.0000124513    0.0012348111    0.0003196508
   0.0000000473    0.0013688661    0.0000025606
  -0.0000000734    0.0013754905    0.0000088161
   0.0000000185    0.0013757096    0.0000051744
  -0.0000000771    0.0013695649    0.0000139678
   0.0000000184    0.0013680619    0.0000118213
  -0.0000115042    0.0010888712    0.0004441691
   0.0000000467    0.0013706407    0.0000010237
   0.0000028798    0.0014094180    0.0000578085
   0.0000000022    0.0013762257    0.0000029400
   0.0000000261    0.0013648016    0.0000107251
   0.0000000014    0.0013645639    0.0000143746
  -0.0000002436    0.0013482809    0.0000146489
  -0.0000000045    0.0013688453    0.0000011857
  -0.0000115550    0.0013807638   -0.0003627462
  -0.0000002534    0.0013905484    0.0000011753
   0.0000001348   -0.0013729515    0.0000004003
   0.0000000075   -0.0013733110   -0.0000000529
  -0.0000000218   -0.0013732441   -0.0000000819
  -0.0000000052   -0.0013732603   -0.0000000179
   0.0000000318   -0.0013732714   -0.0000000670
   0.0000000163   -0.0013733261   -0.0000000587
   0.0000003827   -0.0013734643    0.0000001322
   0.0000000033   -0.0013732589   -0.0000000086
  -0.0000002274   -0.0013735005   -0.0000002408
  -0.0000000009   -0.0013732898    0.0000000507
   0.0000000109   -0.0013732960   -0.0000000872
  -0.0000000053   -0.0013733121   -0.0000001151
   0.0000000651   -0.0013732554    0.0000000003
   0.0000000053   -0.0013732988    0.0000000010
  -0.0000002155   -0.0013739178   -0.0000000414
   0.0000000546   -0.0013734858   -0.0000001095
  -0.0000269280   -0.0013749691    0.0000358229
   0.0000000241   -0.0014166137   -0.0000075005
   0.0000001969   -0.0014022664   -0.0000008155
   0.0000000150   -0.0014051958    0.0000002678
   0.0000007992   -0.0013894732   -0.0000040988
   0.0000000063   -0.0014034203   -0.0000110867
   0.0002667494    0.0006543281    0.0031615504
  -0.0000004045   -0.0014151425   -0.0000052450
  -0.0000001187   -0.0013859760   -0.0000150013
   0.0000001430   -0.0014045498    0.0000024295
  -0.0000000055   -0.0014003790   -0.0000091713
  -0.0000000397   -0.0014035871   -0.0000148836
  -0.0000001136   -0.0014036431   -0.0000303825
   0.0000001429   -0.0014157117   -0.0000071286
   0.0002586739    0.0013372052    0.0008266575
   0.0000002128   -0.0014152452    0.0000044020
  -0.0000000744    0.0014115710    0.0000000811
  -0.0000000103    0.0014114066    0.0000000568
   0.0000000011    0.0014114340    0.0000000260
   0.0000000027    0.0014114291   -0.0000000215
  -0.0000000050    0.0014113874    0.0000000694
   0.0000000035    0.0014114496    0.0000000491
   0.0000026318    0.0014116411   -0.0000020587
  -0.0000000618    0.0014116441   -0.0000001363
   0.0000000133    0.0014114636    0.0000000143
   0.0000000110    0.0014113730   -0.0000000261
  -0.0000000009    0.0014114506    0.0000000609
   0.0000000020    0.0014114632    0.0000000888
   0.0000000386    0.0014115830   -0.0000001361
  -0.0000000169    0.0014114757   -0.0000000562
  -0.0000002896    0.0014117960    0.0000000789
  -0.0000000701    0.0014115747    0.0000001252
  -0.0000000138    0.0013732864    0.0000000002
  -0.0000000002    0.0013732754   -0.0000000019
  -0.0000000002    0.0013732775    0.0000000007
   0.0000000001    0.0013732782    0.0000000011
  -0.0000000002    0.0013732794    0.0000000005
   0.0000000001    0.0013732742    0.0000000057
  -0.0000000138    0.0013733026   -0.0000000117
  -0.0000000002    0.0013732754   -0.0000000005
  -0.0000000042    0.0013732650   -0.0000000200
  -0.0000000001    0.0013732798   -0.0000000023
  -0.0000000000    0.0013732760    0.0000000035
   0.0000000001    0.0013732743    0.0000000051
  -0.0000000007    0.0013732749   -0.0000000077
  -0.0000000001    0.0013732751    0.0000000010
  -0.0000000137    0.0013732827    0.0000000303
  -0.0000000007    0.0013732718   -0.0000000030
   0.0000000187   -0.0013732399    0.0000005708
  -0.0000000083   -0.0013733200   -0.0000000559
   0.0000000125   -0.0013732593   -0.0000000451
   0.0000000009   -0.0013732724   -0.0000000031
  -0.0000000411   -0.0013732867   -0.0000001037
  -0.0000000205   -0.0013733381   -0.0000000734
  -0.0000002373   -0.0013737505   -0.0000000442
  -0.0000000041   -0.0013732681   -0.0000000057
   0.0000001372   -0.0013734383   -0.0000000454
  -0.0000000123   -0.0013733258    0.0000000743
  -0.0000000122   -0.0013733053   -0.0000000948
   0.0000000024   -0.0013733141   -0.0000001081
  -0.0000000697   -0.0013733204   -0.0000000353
  -0.0000000042   -0.0013733094    0.0000000037
   0.0000003522   -0.0013735997    0.0000000718
  -0.0000000644   -0.0013734954   -0.0000001823
  -0.0000000070   -0.0014114058   -0.0000000237
  -0.0000000004   -0.0014114007   -0.0000000039
  -0.0000000003   -0.0014114017    0.0000000044
  -0.0000000001   -0.0014113999    0.0000000014
  -0.0000000012   -0.0014114096   -0.0000000039
  -0.0000000002   -0.0014114003   -0.0000000041
  -0.0000000227   -0.0014113851    0.0000000315
  -0.0000000005   -0.0014114050    0.0000000024
  -0.0000000027   -0.0014113959    0.0000000041
  -0.0000000003   -0.0014114002   -0.0000000006
  -0.0000000002   -0.0014114062   -0.0000000094
  -0.0000000002   -0.0014114044   -0.0000000132
  -0.0000000027   -0.0014113914    0.0000000109
  -0.0000000003   -0.0014114011    0.0000000002
  -0.0000000229   -0.0014113778   -0.0000000070
  -0.0000000008   -0.0014114010    0.0000000038
   0.0000000253    0.0014115253    0.0000001320
   0.0000000146    0.0014114356    0.0000000537
  -0.0000000016    0.0014114369   -0.0000000043
  -0.0000000026    0.0014114273   -0.0000000318
  -0.0000000057    0.0014114246    0.0000000793
  -0.0000000021    0.0014114435    0.0000000748
   0.0000040549    0.0014096917    0.0000013394
   0.0000000607    0.0014116423   -0.0000001339
   0.0000000063    0.0014114105   -0.0000000961
  -0.0000000108    0.0014113714   -0.0000000274
  -0.0000000027    0.0014114783    0.0000000608
  -0.0000000025    0.0014114651    0.0000000886
  -0.0000000192    0.0014115300   -0.0000000257
   0.0000000171    0.0014114740   -0.0000000547
   0.0000001128    0.0014116868    0.0000000788
   0.0000000939    0.0014117074    0.0000001250
   0.0000001830    0.0013821394    0.0000047422
   0.0000001541    0.0013537502   -0.0000199033
   0.0000000606    0.0013786279    0.0000097444
   0.0000000599    0.0013753696    0.0000069177
   0.0000000595    0.0013650536    0.0000158837
   0.0000000598    0.0013683101    0.0000187013
   0.0000001581    0.0013563010   -0.0000221245
   0.0000001492    0.0013845103    0.0000025798
   0.0000000034    0.0013798280    0.0000060828
   0.0000028540    0.0013757931    0.0000286323
   0.0000000013    0.0013671161    0.0000165870
   0.0000000264    0.0013645319    0.0000104926
  -0.0000000044    0.0013652279   -0.0000019713
  -0.0000002445    0.0013482422    0.0000145711
  -0.0000002541    0.0013778215   -0.0000099291
  -0.0000111276    0.0019254767    0.0001116642
  -0.0000000368   -0.0013734413   -0.0000001311
   0.0000000207   -0.0013733238   -0.0000000044
  -0.0000000259   -0.0013732801   -0.0000000070
  -0.0000000151   -0.0013732569   -0.0000000608
   0.0000000396   -0.0013733310   -0.0000000054
   0.0000000440   -0.0013733438   -0.0000000946
   0.0000000138   -0.0013732615    0.0000000604
   0.0000000196   -0.0013733806   -0.0000000519
  -0.0000000279   -0.0013733465    0.0000000150
  -0.0000001311   -0.0013731668    0.0000000147
  -0.0000000028   -0.0013733262   -0.0000000914
   0.0000000065   -0.0013733179   -0.0000001018
   0.0000000137   -0.0013732923    0.0000000172
   0.0000000515   -0.0013732871   -0.0000000280
  -0.0000000335   -0.0013734473   -0.0000000339
   0.0000003775   -0.0013730184   -0.0000001930
  -0.0000005050   -0.0014399909   -0.0000170634
   0.0000010135   -0.0014126079    0.0000000731
   0.0000000082   -0.0014023965   -0.0000006494
   0.0000001129   -0.0014026172    0.0000000294
   0.0000001233   -0.0013880829   -0.0000078050
  -0.0000004402   -0.0014076272   -0.0000215654
  -0.0000269699   -0.0014870212    0.0000057780
  -0.0000003486   -0.0014344513   -0.0000127936
  -0.0000000965   -0.0014091699   -0.0000004087
   0.0000037907   -0.0013899114   -0.0000089815
  -0.0000000013   -0.0014001607   -0.0000131226
  -0.0000000469   -0.0014006773   -0.0000092791
  -0.0000000972   -0.0014138504   -0.0000043309
   0.0000038010   -0.0014377159   -0.0000503065
   0.0000033262   -0.0014431182   -0.0000022622
   0.0000195730   -0.0014932925    0.0001799341
  -0.0000000269    0.0014113855   -0.0000000119
  -0.0000000112    0.0014113552    0.0000000834
   0.0000000021    0.0014114288   -0.0000000319
   0.0000000020    0.0014114540    0.0000000129
   0.0000000149    0.0014114697   -0.0000000427
   0.0000000067    0.0014114441    0.0000000872
  -0.0000000574    0.0014115641   -0.0000002213
  -0.0000001301    0.0014121469   -0.0000000333
   0.0000000057    0.0014114085   -0.0000000149
  -0.0000000190    0.0014115712    0.0000000436
   0.0000000024    0.0014114625    0.0000000671
   0.0000000001    0.0014114494    0.0000000794
  -0.0000000146    0.0014114680   -0.0000000854
   0.0000000033    0.0014112809    0.0000000535
  -0.0000000621    0.0014116010    0.0000000525
   0.0000015215    0.0014100620   -0.0000006021
  -0.0000000029    0.0013732605   -0.0000000181
  -0.0000000029    0.0013732794   -0.0000000014
   0.0000000000    0.0013732708    0.0000000016
   0.0000000000    0.0013732680   -0.0000000008
   0.0000000000    0.0013732668    0.0000000024
   0.0000000000    0.0013732690    0.0000000043
  -0.0000000029    0.0013732614    0.0000000162
  -0.0000000029    0.0013732419   -0.0000000000
  -0.0000000001    0.0013732775   -0.0000000047
  -0.0000000042    0.0013732740   -0.0000000120
   0.0000000001    0.0013732741    0.0000000059
  -0.0000000000    0.0013732739    0.0000000025
  -0.0000000001    0.0013732746    0.0000000009
  -0.0000000007    0.0013732812   -0.0000000018
  -0.0000000007    0.0013732772    0.0000000005
  -0.0000000137    0.0013732592    0.0000000103
   0.0000000294   -0.0013734288   -0.0000000966
  -0.0000000282   -0.0013733615   -0.0000000052
   0.0000000179   -0.0013732972    0.0000000378
   0.0000000065   -0.0013732866   -0.0000000201
  -0.0000000476   -0.0013733480   -0.0000000503
  -0.0000000525   -0.0013733733   -0.0000001350
  -0.0000000212   -0.0013732494    0.0000000257
  -0.0000000271   -0.0013734184   -0.0000000508
   0.0000000154   -0.0013733518    0.0000000495
   0.0000000186   -0.0013733285    0.0000002579
   0.0000000004   -0.0013733283   -0.0000000873
  -0.0000000077   -0.0013733229   -0.0000001072
  -0.0000000122   -0.0013733082    0.0000000132
  -0.0000000570   -0.0013733444   -0.0000000523
   0.0000000214   -0.0013733887   -0.0000000471
  -0.0000002428   -0.0013730599   -0.0000005831
  -0.0000000028   -0.0014113926   -0.0000000001
  -0.0000000013   -0.0014113930   -0.0000000103
  -0.0000000002   -0.0014113963    0.0000000022
  -0.0000000002   -0.0014113945    0.0000000024
  -0.0000000006   -0.0014113922    0.0000000002
  -0.0000000005   -0.0014113953   -0.0000000074
  -0.0000000072   -0.0014114011    0.0000000008
  -0.0000000028   -0.0014113917    0.0000000128
  -0.0000000005   -0.0014114008    0.0000000006
  -0.0000000019   -0.0014114001   -0.0000000076
  -0.0000000001   -0.0014114067   -0.0000000118
  -0.0000000001   -0.0014114076   -0.0000000097
  -0.0000000005   -0.0014113998    0.0000000028
  -0.0000000019   -0.0014114138   -0.0000000190
  -0.0000000020   -0.0014114159   -0.0000000031
  -0.0000000122   -0.0014114178    0.0000000416
   0.0000000247    0.0014114000   -0.0000000092
  -0.0000000033    0.0014114455    0.0000001043
  -0.0000000002    0.0014114272   -0.0000000694
  -0.0000000030    0.0014114509   -0.0000000113
  -0.0000000080    0.0014114705    0.0000000142
  -0.0000000147    0.0014114611    0.0000001365
   0.0000000350    0.0014115352   -0.0000001408
   0.0000000868    0.0014121628   -0.0000001297
  -0.0000000067    0.0014113993   -0.0000000387
   0.0000000011    0.0014115229   -0.0000000134
   0.0000000027    0.0014114546    0.0000000670
  -0.0000000042    0.0014114716    0.0000000792
   0.0000000137    0.0014114589   -0.0000000615
  -0.0000000211    0.0014112331    0.0000001104
   0.0000000569    0.0014115822    0.0000000525
   0.0000052334    0.0014140769   -0.0000005959

1    
 -0.0045801749590462  -0.0058194991440612  -0.0067197787952281
   0.0006626328    0.0070583881    0.0067102347
  -0.0000001516    0.0013695842   -0.0000047434
  -0.0000004364    0.0014011142   -0.0000168090
   0.0000000055    0.0013796865   -0.0000135828
   0.0000000292    0.0013844724   -0.0000021706
   0.0000000094    0.0013810915   -0.0000007438
  -0.0000004550    0.0013859891   -0.0000037907
   0.0000000064    0.0013694166   -0.0000047248
   0.0000109787    0.0009745309   -0.0002460040
   0.0000002567    0.0013871809   -0.0000059500
   0.0000002416    0.0013802385    0.0000009266
   0.0000000038    0.0013839716   -0.0000003318
  -0.0000000260    0.0013725659   -0.0000023567
  -0.0000000013    0.0013687772   -0.0000074635
  -0.0000028638    0.0013834423   -0.0000398832
  -0.0000000018    0.0013719738   -0.0000107328
  -0.0000040736   -0.0013720979    0.0000012830
   0.0000000223   -0.0013730564   -0.0000001351
   0.0000000429   -0.0013732488    0.0000002299
   0.0000000276   -0.0013732553    0.0000000569
  -0.0000000277   -0.0013732645    0.0000000163
  -0.0000000068   -0.0013732313    0.0000000016
  -0.0000000210   -0.0013733507    0.0000001002
  -0.0000000145   -0.0013732301    0.0000000514
   0.0000000558   -0.0013733067   -0.0000006534
   0.0000000525   -0.0013733017   -0.0000000310
  -0.0000000128   -0.0013732723    0.0000000571
  -0.0000000095   -0.0013732115    0.0000000243
   0.0000000004   -0.0013733104    0.0000000642
  -0.0000000049   -0.0013732928    0.0000000709
  -0.0000000591   -0.0013731952   -0.0000000804
  -0.0000000339   -0.0013731908   -0.0000000218
  -0.0002628248   -0.0016830266   -0.0016749534
   0.0000004067   -0.0014131633    0.0000006510
  -0.0000007892   -0.0014209713    0.0000149083
  -0.0000000058   -0.0014188148    0.0000118217
  -0.0000001973   -0.0014099389    0.0000100568
  -0.0000000149   -0.0014093610    0.0000068625
   0.0000268545   -0.0013563234    0.0000438360
  -0.0000000251   -0.0014134052    0.0000011818
  -0.0000180260   -0.0014034637    0.0001465579
   0.0000001018   -0.0014161740    0.0000085160
   0.0000001482   -0.0014093533    0.0000047562
   0.0000000158   -0.0014091522    0.0000080992
   0.0000001481   -0.0014144992    0.0000003147
   0.0000000160   -0.0014164005    0.0000018322
  -0.0000180668   -0.0016544667   -0.0000704475
   0.0000001015   -0.0014135255    0.0000106431
  -0.0000058701    0.0014101976   -0.0000023655
  -0.0000000103    0.0014114665   -0.0000000139
   0.0000000076    0.0014113855   -0.0000000257
  -0.0000000003    0.0014113662   -0.0000000476
   0.0000000040    0.0014114285   -0.0000000273
   0.0000000009    0.0014114025   -0.0000000066
   0.0000000283    0.0014115897   -0.0000004941
   0.0000000135    0.0014113426   -0.0000000276
   0.0000001272    0.0014113846   -0.0000002023
  -0.0000000217    0.0014114545    0.0000000309
   0.0000000009    0.0014114282   -0.0000000365
   0.0000000013    0.0014114260   -0.0000000742
  -0.0000000006    0.0014113834   -0.0000000156
   0.0000000009    0.0014113248    0.0000000115
  -0.0000001138    0.0014111371    0.0000004820
   0.0000000023    0.0014113744    0.0000000188
   0.0000000272    0.0013732367   -0.0000000447
  -0.0000000001    0.0013732782    0.0000000061
   0.0000000030    0.0013732832    0.0000000059
   0.0000000000    0.0013732753   -0.0000000034
  -0.0000000000    0.0013732816   -0.0000000076
  -0.0000000000    0.0013732829   -0.0000000100
   0.0000000030    0.0013732615    0.0000000271
   0.0000000000    0.0013732781   -0.0000000029
   0.0000000137    0.0013732816   -0.0000000008
   0.0000000007    0.0013732702    0.0000000026
   0.0000000007    0.0013732776   -0.0000000040
   0.0000000001    0.0013732793   -0.0000000021
   0.0000000001    0.0013732807    0.0000000106
  -0.0000000001    0.0013732810    0.0000000077
   0.0000000042    0.0013732794    0.0000000097
   0.0000000002    0.0013732823   -0.0000000020
  -0.0000039116   -0.0013720354    0.0000012962
  -0.0000000026   -0.0013730756   -0.0000001353
  -0.0000000336   -0.0013732588    0.0000001865
  -0.0000000233   -0.0013732623    0.0000000283
   0.0000000290   -0.0013732198    0.0000000163
   0.0000000052   -0.0013732219    0.0000000016
   0.0000000305   -0.0013733608    0.0000001440
   0.0000000187   -0.0013732371    0.0000000801
  -0.0000001870   -0.0013736268   -0.0000005439
  -0.0000000427   -0.0013732921   -0.0000001041
   0.0000000174   -0.0013732072    0.0000000213
   0.0000000083   -0.0013732007    0.0000000271
   0.0000000008   -0.0013733010    0.0000000564
   0.0000000077   -0.0013732908    0.0000000777
   0.0000001491   -0.0013732575    0.0000001149
   0.0000000471   -0.0013731545    0.0000000018
   0.0000000227   -0.0014113909   -0.0000000087
   0.0000000006   -0.0014114008   -0.0000000059
   0.0000000012   -0.0014114047   -0.0000000053
   0.0000000002   -0.0014114045    0.0000000021
   0.0000000003   -0.0014114055    0.0000000090
   0.0000000001   -0.0014114077    0.0000000116
   0.0000000070   -0.0014114027    0.0000000195
   0.0000000004   -0.0014114027    0.0000000025
   0.0000000118   -0.0014113994    0.0000000267
   0.0000000006   -0.0014114038   -0.0000000046
   0.0000000005   -0.0014114017   -0.0000000014
   0.0000000002   -0.0014114034    0.0000000034
   0.0000000005   -0.0014114036   -0.0000000013