512  
1    

1    
  0.0100000000000000   0.0000000000000000   0.0000000000000000
  -0.0049514208   -0.0000000001   -0.0000000001
   0.0000133641   -0.0000000001   -0.0000000001
   0.0000001192   -0.0000000001   -0.0000000001
   0.0000131199   -0.0000000001   -0.0000000001
   0.0000039350    0.0000000030    0.0000000000
   0.0000046147    0.0000048800   -0.0000030589
  -0.0000000554   -0.0000000000    0.0000000752
   0.0000045967   -0.0000048666   -0.0000030793
   0.0000002786   -0.0000000001   -0.0000000001
   0.0000000688   -0.0000000001   -0.0000000001
   0.0000000622   -0.0000000001   -0.0000000001
   0.0000000689   -0.0000000001   -0.0000000001
   0.0000039350   -0.0000000032   -0.0000000002
   0.0000046147   -0.0000048802    0.0000030587
  -0.0000000554   -0.0000000002   -0.0000000754
   0.0000045967    0.0000048664    0.0000030791
   0.0000039350    0.0000000000    0.0000000030
   0.0000046147   -0.0000030589    0.0000048800
  -0.0000000554    0.0000000752   -0.0000000000
   0.0000045967   -0.0000030793   -0.0000048666
  -0.0000049995    0.0000030562    0.0000030562
   0.0000000866   -0.0000002128   -0.0000002128
   0.0000000277   -0.0000000092   -0.0000000092
   0.0000000864    0.0000002137    0.0000002137
  -0.0000000305   -0.0000000759   -0.0000000001
   0.0000000127    0.0000000090   -0.0000001157
  -0.0000000012   -0.0000000005   -0.0000000001
   0.0000000129    0.0000000089    0.0000001154
  -0.0000050314    0.0000030817   -0.0000030819
   0.0000000863    0.0000002145   -0.0000002147
   0.0000000278   -0.0000000090    0.0000000088
   0.0000000854   -0.0000002151    0.0000002149
   0.0000002786   -0.0000000001   -0.0000000001
   0.0000000688   -0.0000000001   -0.0000000001
   0.0000000622   -0.0000000001   -0.0000000001
   0.0000000689   -0.0000000001   -0.0000000001
  -0.0000000305   -0.0000000001   -0.0000000759
   0.0000000127   -0.0000001157    0.0000000090
  -0.0000000012   -0.0000000001   -0.0000000005
   0.0000000129    0.0000001154    0.0000000089
  -0.0000003035   -0.0000000001   -0.0000000001
  -0.0000000541   -0.0000000001   -0.0000000001
  -0.0000000100   -0.0000000001   -0.0000000001
  -0.0000000543   -0.0000000001   -0.0000000001
  -0.0000000305   -0.0000000001    0.0000000757
   0.0000000127    0.0000001155   -0.0000000092
  -0.0000000012   -0.0000000001    0.0000000003
   0.0000000129   -0.0000001156   -0.0000000091
   0.0000039350   -0.0000000002   -0.0000000032
   0.0000046147    0.0000030587   -0.0000048802
  -0.0000000554   -0.0000000754   -0.0000000002
   0.0000045967    0.0000030791    0.0000048664
  -0.0000050314   -0.0000030819    0.0000030817
   0.0000000863   -0.0000002147    0.0000002145
   0.0000000278    0.0000000088   -0.0000000090
   0.0000000854    0.0000002149   -0.0000002151
  -0.0000000305    0.0000000757   -0.0000000001
   0.0000000127   -0.0000000092    0.0000001155
  -0.0000000012    0.0000000003   -0.0000000001
   0.0000000129   -0.0000000091   -0.0000001156
  -0.0000049995   -0.0000030564   -0.0000030564
   0.0000000866    0.0000002126    0.0000002126
   0.0000000277    0.0000000090    0.0000000090
   0.0000000864   -0.0000002139   -0.0000002139
   0.0010240072    0.0002441128    0.0002441128
  -0.0000159650    0.0000087776    0.0000087776
  -0.0000000507    0.0000001167    0.0000001167
   0.0000001296    0.0000004776    0.0000004776
  -0.0000121602    0.0000087726   -0.0000039175
   0.0000125082    0.0000145431    0.0000211917
  -0.0000000989   -0.0000000756   -0.0000001469
  -0.0000011041    0.0000005849   -0.0000008358
  -0.0000003365    0.0000001173   -0.0000000201
  -0.0000001723   -0.0000000756   -0.0000000911
   0.0000000346    0.0000000271    0.0000000560
   0.0000000154   -0.0000000006    0.0000000542
  -0.0000013124    0.0000004740   -0.0000000566
  -0.0000000426    0.0000005826    0.0000000834
  -0.0000000571   -0.0000000007    0.0000000689
   0.0000004414    0.0000003283   -0.0000010029
  -0.0000121602   -0.0000039175    0.0000087726
   0.0000125082    0.0000211917    0.0000145431
  -0.0000000989   -0.0000001469   -0.0000000756
  -0.0000011041   -0.0000008358    0.0000005849
   0.0000143383    0.0000212080    0.0000212080
  -0.0000007634   -0.0000002053   -0.0000002053
   0.0000000001   -0.0000000016   -0.0000000016
  -0.0000000811   -0.0000000368   -0.0000000368
  -0.0000000691   -0.0000001470   -0.0000000910
   0.0000000176   -0.0000000018    0.0000001853
  -0.0000000144    0.0000000198    0.0000000202
  -0.0000000899    0.0000000769   -0.0000001124
  -0.0000002636   -0.0000008370    0.0000000836
   0.0000001792   -0.0000000409    0.0000005584
  -0.0000000111    0.0000000768    0.0000000080
  -0.0000000231    0.0000000539   -0.0000000685
  -0.0000003365   -0.0000000201    0.0000001173
  -0.0000001723   -0.0000000911   -0.0000000756
   0.0000000346    0.0000000560    0.0000000271
   0.0000000154    0.0000000542   -0.0000000006
  -0.0000000691   -0.0000000910   -0.0000001470
   0.0000000176    0.0000001853   -0.0000000018
  -0.0000000144    0.0000000202    0.0000000198
  -0.0000000899   -0.0000001124    0.0000000769
   0.0000002780    0.0000000561    0.0000000561
   0.0000000878    0.0000000199    0.0000000199
   0.0000000044    0.0000000086    0.0000000086
   0.0000000337   -0.0000000251   -0.0000000251
   0.0000000980    0.0000000545    0.0000000690
   0.0000000938   -0.0000001129    0.0000000088
  -0.0000000006   -0.0000000248   -0.0000000076
  -0.0000000029    0.0000000613   -0.0000000119
  -0.0000013124   -0.0000000566    0.0000004740
  -0.0000000426    0.0000000834    0.0000005826
  -0.0000000571    0.0000000689   -0.0000000007
   0.0000004414   -0.0000010029    0.0000003283
  -0.0000002636    0.0000000836   -0.0000008370
   0.0000001792    0.0000005584   -0.0000000409
  -0.0000000111    0.0000000080    0.0000000768
  -0.0000000231   -0.0000000685    0.0000000539
   0.0000000980    0.0000000690    0.0000000545
   0.0000000938    0.0000000088   -0.0000001129
  -0.0000000006   -0.0000000076   -0.0000000248
  -0.0000000029   -0.0000000119    0.0000000613
   0.0000013955   -0.0000009978   -0.0000009978
  -0.0000000206   -0.0000000680   -0.0000000680
  -0.0000000072   -0.0000000124   -0.0000000124
  -0.0000000227    0.0000000491    0.0000000491
  -0.0001154270    0.0000728894    0.0000728894
  -0.0000005845    0.0000015688    0.0000015688
   0.0000000214    0.0000000412    0.0000000412
  -0.0000005775    0.0000010721    0.0000010721
   0.0000003229   -0.0000003258   -0.0000001326
  -0.0000000183   -0.0000000045   -0.0000002255
  -0.0000000149   -0.0000000220    0.0000000133
  -0.0000000186    0.0000001180    0.0000003270
   0.0000003245   -0.0000003273    0.0000001315
  -0.0000000190    0.0000001179   -0.0000003268
  -0.0000000149   -0.0000000220   -0.0000000132
  -0.0000000197   -0.0000000060    0.0000002264
  -0.0001163116    0.0000735117   -0.0000735117
  -0.0000005968    0.0000010882   -0.0000010881
   0.0000000212    0.0000000413   -0.0000000413
  -0.0000005908    0.0000015775   -0.0000015774
   0.0000003229   -0.0000001326   -0.0000003258
  -0.0000000183   -0.0000002255   -0.0000000045
  -0.0000000149    0.0000000133   -0.0000000220
  -0.0000000186    0.0000003270    0.0000001180
  -0.0000005455    0.0000002479    0.0000002479
  -0.0000000174   -0.0000000523   -0.0000000523
  -0.0000000009    0.0000000002    0.0000000002
  -0.0000000176    0.0000000387    0.0000000387
  -0.0000005482    0.0000002491   -0.0000002491
  -0.0000000176    0.0000000388   -0.0000000388
  -0.0000000009    0.0000000002   -0.0000000001
  -0.0000000175   -0.0000000524    0.0000000525
   0.0000003245   -0.0000001315    0.0000003273
  -0.0000000190    0.0000003268   -0.0000001179
  -0.0000000149    0.0000000132    0.0000000220
  -0.0000000197   -0.0000002263    0.0000000060
   0.0000003245    0.0000001315   -0.0000003273
  -0.0000000190   -0.0000003268    0.0000001179
  -0.0000000149   -0.0000000132   -0.0000000220
  -0.0000000197    0.0000002264   -0.0000000060
  -0.0000005482   -0.0000002491    0.0000002491
  -0.0000000176   -0.0000000388    0.0000000388
  -0.0000000009   -0.0000000001    0.0000000002
  -0.0000000175    0.0000000525   -0.0000000524
  -0.0000005455   -0.0000002478   -0.0000002478
  -0.0000000174    0.0000000523    0.0000000523
  -0.0000000009   -0.0000000002   -0.0000000002
  -0.0000000176   -0.0000000386   -0.0000000386
   0.0000003229    0.0000001327    0.0000003259
  -0.0000000183    0.0000002256    0.0000000046
  -0.0000000149   -0.0000000132    0.0000000220
  -0.0000000186   -0.0000003270   -0.0000001180
  -0.0001163116   -0.0000735117    0.0000735117
  -0.0000005968   -0.0000010881    0.0000010882
   0.0000000212   -0.0000000413    0.0000000413
  -0.0000005908   -0.0000015774    0.0000015775
   0.0000003245    0.0000003273   -0.0000001315
  -0.0000000190   -0.0000001179    0.0000003268
  -0.0000000149    0.0000000220    0.0000000132
  -0.0000000197    0.0000000060   -0.0000002263
   0.0000003229    0.0000003259    0.0000001327
  -0.0000000183    0.0000000046    0.0000002256
  -0.0000000149    0.0000000220   -0.0000000132
  -0.0000000186   -0.0000001180   -0.0000003270
  -0.0001154270   -0.0000728893   -0.0000728893
  -0.0000005845   -0.0000015688   -0.0000015688
   0.0000000214   -0.0000000412   -0.0000000412
  -0.0000005775   -0.0000010721   -0.0000010721
   0.0010240072   -0.0002441128   -0.0002441128
  -0.0000159650   -0.0000087775   -0.0000087775
  -0.0000000507   -0.0000001166   -0.0000001166
   0.0000001296   -0.0000004775   -0.0000004775
  -0.0000013124   -0.0000004739    0.0000000567
  -0.0000000426   -0.0000005826   -0.0000000833
  -0.0000000571    0.0000000008   -0.0000000688
   0.0000004414   -0.0000003282    0.0000010029
  -0.0000003365   -0.0000001172    0.0000000202
  -0.0000001723    0.0000000757    0.0000000912
   0.0000000346   -0.0000000270   -0.0000000560
   0.0000000154    0.0000000007   -0.0000000541
  -0.0000121602   -0.0000087726    0.0000039176
   0.0000125082   -0.0000145431   -0.0000211916
  -0.0000000989    0.0000000757    0.0000001470
  -0.0000011041   -0.0000005848    0.0000008359
  -0.0000013124    0.0000000567   -0.0000004739
  -0.0000000426   -0.0000000833   -0.0000005826
  -0.0000000571   -0.0000000688    0.0000000008
   0.0000004414    0.0000010029   -0.0000003282
   0.0000013955    0.0000009979    0.0000009979
  -0.0000000206    0.0000000681    0.0000000681
  -0.0000000072    0.0000000124    0.0000000124
  -0.0000000227   -0.0000000490   -0.0000000490
   0.0000000980   -0.0000000689   -0.0000000544
   0.0000000938   -0.0000000087    0.0000001130
  -0.0000000006    0.0000000076    0.0000000249
  -0.0000000029    0.0000000120   -0.0000000613
  -0.0000002636   -0.0000000835    0.0000008371
   0.0000001792   -0.0000005583    0.0000000409
  -0.0000000111   -0.0000000079   -0.0000000767
  -0.0000000231    0.0000000686   -0.0000000538
  -0.0000003365    0.0000000202   -0.0000001172
  -0.0000001723    0.0000000912    0.0000000757
   0.0000000346   -0.0000000560   -0.0000000270
   0.0000000154   -0.0000000541    0.0000000007
   0.0000000980   -0.0000000544   -0.0000000689
   0.0000000938    0.0000001130   -0.0000000087
  -0.0000000006    0.0000000249    0.0000000076
  -0.0000000029   -0.0000000613    0.0000000120
   0.0000002780   -0.0000000560   -0.0000000560
   0.0000000878   -0.0000000199   -0.0000000199
   0.0000000044   -0.0000000086   -0.0000000086
   0.0000000337    0.0000000251    0.0000000251
  -0.0000000691    0.0000000911    0.0000001471
   0.0000000176   -0.0000001852    0.0000000019
  -0.0000000144   -0.0000000201   -0.0000000197
  -0.0000000899    0.0000001125   -0.0000000768
  -0.0000121602    0.0000039176   -0.0000087726
   0.0000125082   -0.0000211916   -0.0000145431
  -0.0000000989    0.0000001470    0.0000000757
  -0.0000011041    0.0000008359   -0.0000005848
  -0.0000002636    0.0000008371   -0.0000000835
   0.0000001792    0.0000000409   -0.0000005583
  -0.0000000111   -0.0000000767   -0.0000000079
  -0.0000000231   -0.0000000538    0.0000000686
  -0.0000000691    0.0000001471    0.0000000911
   0.0000000176    0.0000000019   -0.0000001852
  -0.0000000144   -0.0000000197   -0.0000000201
  -0.0000000899   -0.0000000768    0.0000001125
   0.0000143383   -0.0000212079   -0.0000212079
  -0.0000007634    0.0000002054    0.0000002054
   0.0000000001    0.0000000017    0.0000000017
  -0.0000000811    0.0000000369    0.0000000369
   0.0001540545   -0.0000732755    0.0001620043
  -0.0000000617    0.0000003250    0.0000000119
  -0.0000000620    0.0000003270   -0.0000000130
   0.0001525421   -0.0000731265   -0.0001600746
   0.0000012020   -0.0000010761   -0.0000009618
  -0.0000001652   -0.0000001175    0.0000000672
  -0.0000001657    0.0000000050    0.0000000684
   0.0000011924   -0.0000015775    0.0000009572
   0.0000001641   -0.0000000412   -0.0000001387
  -0.0000000019    0.0000000219   -0.0000000612
  -0.0000000019    0.0000000219    0.0000000614
   0.0000001642   -0.0000000415    0.0000001386
   0.0000011946   -0.0000015690   -0.0000009648
  -0.0000001657    0.0000000057   -0.0000000684
  -0.0000001657   -0.0000001182   -0.0000000673
   0.0000011847   -0.0000010844    0.0000009597
   0.0000006858    0.0000001318    0.0000000130
   0.0000001681   -0.0000002477    0.0000002223
   0.0000001679   -0.0000002501   -0.0000002222
   0.0000006866    0.0000001326   -0.0000000119
  -0.0000000340   -0.0000003263   -0.0000000681
   0.0000000175   -0.0000000385    0.0000000026
   0.0000000175    0.0000000526   -0.0000000026
  -0.0000000346    0.0000002256   -0.0000000673
  -0.0000001264   -0.0000000136   -0.0000000613
  -0.0000000108   -0.0000000008   -0.0000000300
  -0.0000000109   -0.0000000008    0.0000000301
  -0.0000001266   -0.0000000135    0.0000000613
  -0.0000000341    0.0000002263    0.0000000675
   0.0000000175    0.0000000526    0.0000000025
   0.0000000177   -0.0000000387   -0.0000000025
  -0.0000000354   -0.0000003273    0.0000000689
   0.0000006858   -0.0000001320   -0.0000000129
   0.0000001681    0.0000002475   -0.0000002223
   0.0000001679    0.0000002499    0.0000002223
   0.0000006866   -0.0000001328    0.0000000119
  -0.0000000341   -0.0000002266   -0.0000000675
   0.0000000175   -0.0000000528   -0.0000000024
   0.0000000177    0.0000000385    0.0000000026
  -0.0000000354    0.0000003271   -0.0000000689
  -0.0000001264    0.0000000134    0.0000000613
  -0.0000000108    0.0000000006    0.0000000301
  -0.0000000109    0.0000000006   -0.0000000301
  -0.0000001266    0.0000000133   -0.0000000612
  -0.0000000340    0.0000003261    0.0000000682
   0.0000000175    0.0000000383   -0.0000000025
   0.0000000175   -0.0000000528    0.0000000026
  -0.0000000346   -0.0000002259    0.0000000673
   0.0001540545    0.0000732753   -0.0001620043
  -0.0000000617   -0.0000003252   -0.0000000118
  -0.0000000620   -0.0000003272    0.0000000130
   0.0001525421    0.0000731263    0.0001600747
   0.0000011946    0.0000015688    0.0000009648
  -0.0000001657   -0.0000000059    0.0000000684
  -0.0000001657    0.0000001180    0.0000000673
   0.0000011847    0.0000010842   -0.0000009596
   0.0000001641    0.0000000410    0.0000001387
  -0.0000000019   -0.0000000221    0.0000000613
  -0.0000000019   -0.0000000221   -0.0000000614
   0.0000001642    0.0000000413   -0.0000001385
   0.0000012020    0.0000010759    0.0000009619
  -0.0000001652    0.0000001173   -0.0000000671
  -0.0000001657   -0.0000000052   -0.0000000683
   0.0000011924    0.0000015773   -0.0000009571
   0.0010421328   -0.0002608406    0.0002608407
   0.0000001267   -0.0000004731    0.0000004732
  -0.0000000506   -0.0000001173    0.0000001174
  -0.0000159107   -0.0000087689    0.0000087690
  -0.0000121957   -0.0000087739   -0.0000039301
  -0.0000011002   -0.0000005829   -0.0000008342
  -0.0000000991    0.0000000759   -0.0000001480
   0.0000123157   -0.0000142879    0.0000212656
  -0.0000003355   -0.0000001166   -0.0000000197
   0.0000000151    0.0000000006    0.0000000541
   0.0000000347   -0.0000000270    0.0000000568
  -0.0000001728    0.0000000762   -0.0000000915
  -0.0000013132   -0.0000004768   -0.0000000568
   0.0000004455   -0.0000003326   -0.0000009945
  -0.0000000573    0.0000000008    0.0000000688
  -0.0000000425   -0.0000005854    0.0000000843
  -0.0000013132    0.0000000569    0.0000004768
   0.0000004455    0.0000009946    0.0000003327
  -0.0000000573   -0.0000000688   -0.0000000007
  -0.0000000425   -0.0000000843    0.0000005855
  -0.0000002636   -0.0000000839   -0.0000008331
  -0.0000000234    0.0000000680    0.0000000532
  -0.0000000112   -0.0000000078    0.0000000773
   0.0000001751   -0.0000005558   -0.0000000350
   0.0000000977   -0.0000000689    0.0000000542
  -0.0000000029    0.0000000121    0.0000000613
  -0.0000000006    0.0000000077   -0.0000000248
   0.0000000937   -0.0000000085   -0.0000001123
   0.0000014059    0.0000010000   -0.0000009999
  -0.0000000224   -0.0000000496    0.0000000497
  -0.0000000073    0.0000000125   -0.0000000124
  -0.0000000206    0.0000000686   -0.0000000685
  -0.0000003355    0.0000000198    0.0000001167
   0.0000000151   -0.0000000540   -0.0000000005
   0.0000000347   -0.0000000567    0.0000000271
  -0.0000001728    0.0000000916   -0.0000000761
  -0.0000000695    0.0000000916   -0.0000001476
  -0.0000000893    0.0000001126    0.0000000765
  -0.0000000144   -0.0000000201    0.0000000198
   0.0000000178   -0.0000001857   -0.0000000017
   0.0000002788   -0.0000000563    0.0000000564
   0.0000000337    0.0000000252   -0.0000000251
   0.0000000044   -0.0000000086    0.0000000086
   0.0000000878   -0.0000000198    0.0000000199
   0.0000000977   -0.0000000541    0.0000000689
  -0.0000000029   -0.0000000612   -0.0000000120
  -0.0000000006    0.0000000249   -0.0000000076
   0.0000000937    0.0000001124    0.0000000085
  -0.0000121957    0.0000039302    0.0000087740
  -0.0000011002    0.0000008343    0.0000005830
  -0.0000000991    0.0000001481   -0.0000000758
   0.0000123157   -0.0000212655    0.0000142880
   0.0000145391   -0.0000212507    0.0000212508
  -0.0000000816    0.0000000391   -0.0000000390
   0.0000000002    0.0000000015   -0.0000000014
  -0.0000007670    0.0000002044   -0.0000002043
  -0.0000000695    0.0000001477   -0.0000000915
  -0.0000000893   -0.0000000764   -0.0000001125
  -0.0000000144   -0.0000000198    0.0000000202
   0.0000000178    0.0000000018    0.0000001858
  -0.0000002636    0.0000008331    0.0000000839
  -0.0000000234   -0.0000000532   -0.0000000679
  -0.0000000112   -0.0000000772    0.0000000079
   0.0000001751    0.0000000350    0.0000005558
   0.0001540545    0.0001620043   -0.0000732755
  -0.0000000617    0.0000000119    0.0000003250
  -0.0000000620   -0.0000000130    0.0000003270
   0.0001525421   -0.0001600746   -0.0000731265
   0.0000006858    0.0000000130    0.0000001318
   0.0000001681    0.0000002223   -0.0000002477
   0.0000001679   -0.0000002222   -0.0000002501
   0.0000006866   -0.0000000119    0.0000001326
   0.0000006858   -0.0000000129   -0.0000001320
   0.0000001681   -0.0000002223    0.0000002475
   0.0000001679    0.0000002223    0.0000002499
   0.0000006866    0.0000000119   -0.0000001328
   0.0001540545   -0.0001620043    0.0000732753
  -0.0000000617   -0.0000000118   -0.0000003252
  -0.0000000620    0.0000000130   -0.0000003272
   0.0001525421    0.0001600747    0.0000731263
   0.0000012020   -0.0000009618   -0.0000010761
  -0.0000001652    0.0000000672   -0.0000001175
  -0.0000001657    0.0000000684    0.0000000050
   0.0000011924    0.0000009572   -0.0000015775
  -0.0000000340   -0.0000000681   -0.0000003263
   0.0000000175    0.0000000026   -0.0000000385
   0.0000000175   -0.0000000026    0.0000000526
  -0.0000000346   -0.0000000673    0.0000002256
  -0.0000000341   -0.0000000675   -0.0000002266
   0.0000000175   -0.0000000024   -0.0000000528
   0.0000000177    0.0000000026    0.0000000385
  -0.0000000354   -0.0000000689    0.0000003271
   0.0000011946    0.0000009648    0.0000015688
  -0.0000001657    0.0000000684   -0.0000000059
  -0.0000001657    0.0000000674    0.0000001180
   0.0000011847   -0.0000009596    0.0000010842
   0.0000001641   -0.0000001387   -0.0000000412
  -0.0000000019   -0.0000000612    0.0000000219
  -0.0000000019    0.0000000614    0.0000000219
   0.0000001642    0.0000001386   -0.0000000415
  -0.0000001264   -0.0000000613   -0.0000000136
  -0.0000000108   -0.0000000300   -0.0000000008
  -0.0000000109    0.0000000301   -0.0000000008
  -0.0000001266    0.0000000613   -0.0000000135
  -0.0000001264    0.0000000613    0.0000000134
  -0.0000000108    0.0000000301    0.0000000006
  -0.0000000109   -0.0000000301    0.0000000006
  -0.0000001266   -0.0000000612    0.0000000133
   0.0000001641    0.0000001387    0.0000000410
  -0.0000000019    0.0000000613   -0.0000000221
  -0.0000000019   -0.0000000614   -0.0000000221
   0.0000001642   -0.0000001385    0.0000000413
   0.0000011946   -0.0000009648   -0.0000015690
  -0.0000001657   -0.0000000684    0.0000000057
  -0.0000001657   -0.0000000673   -0.0000001182
   0.0000011847    0.0000009597   -0.0000010844
  -0.0000000341    0.0000000675    0.0000002263
   0.0000000175    0.0000000025    0.0000000526
   0.0000000177   -0.0000000025   -0.0000000387
  -0.0000000354    0.0000000689   -0.0000003273
  -0.0000000340    0.0000000682    0.0000003261
   0.0000000175   -0.0000000025    0.0000000383
   0.0000000175    0.0000000026   -0.0000000528
  -0.0000000346    0.0000000673   -0.0000002259
   0.0000012020    0.0000009619    0.0000010759
  -0.0000001652   -0.0000000671    0.0000001173
  -0.0000001657   -0.0000000683   -0.0000000052
   0.0000011924   -0.0000009571    0.0000015773
   0.0010421328    0.0002608407   -0.0002608406
   0.0000001267    0.0000004732   -0.0000004731
  -0.0000000506    0.0000001174   -0.0000001173
  -0.0000159107    0.0000087690   -0.0000087689
  -0.0000013132    0.0000004768    0.0000000569
   0.0000004455    0.0000003327    0.0000009946
  -0.0000000573   -0.0000000007   -0.0000000688
  -0.0000000425    0.0000005855   -0.0000000843
  -0.0000003355    0.0000001167    0.0000000198
   0.0000000151   -0.0000000005   -0.0000000540
   0.0000000347    0.0000000271   -0.0000000567
  -0.0000001728   -0.0000000761    0.0000000916
  -0.0000121957    0.0000087740    0.0000039302
  -0.0000011002    0.0000005830    0.0000008343
  -0.0000000991   -0.0000000758    0.0000001481
   0.0000123157    0.0000142880   -0.0000212655
  -0.0000121957   -0.0000039301   -0.0000087739
  -0.0000011002   -0.0000008342   -0.0000005829
  -0.0000000991   -0.0000001480    0.0000000759
   0.0000123157    0.0000212656   -0.0000142879
  -0.0000002636   -0.0000008331   -0.0000000839
  -0.0000000234    0.0000000532    0.0000000680
  -0.0000000112    0.0000000773   -0.0000000078
   0.0000001751   -0.0000000350   -0.0000005558
  -0.0000000695   -0.0000001476    0.0000000916
  -0.0000000893    0.0000000765    0.0000001126
  -0.0000000144    0.0000000198   -0.0000000201
   0.0000000178   -0.0000000017   -0.0000001857
   0.0000145391    0.0000212508   -0.0000212507
  -0.0000000816   -0.0000000390    0.0000000391
   0.0000000002   -0.0000000014    0.0000000015
  -0.0000007670   -0.0000002043    0.0000002044
  -0.0000003355   -0.0000000197   -0.0000001166
   0.0000000151    0.0000000541    0.0000000006
   0.0000000347    0.0000000568   -0.0000000270
  -0.0000001728   -0.0000000915    0.0000000762
   0.0000000977    0.0000000542   -0.0000000689
  -0.0000000029    0.0000000613    0.0000000121
  -0.0000000006   -0.0000000248    0.0000000077
   0.0000000937   -0.0000001123   -0.0000000085
   0.0000002788    0.0000000564   -0.0000000563
   0.0000000337   -0.0000000251    0.0000000252
   0.0000000044    0.0000000086   -0.0000000086
   0.0000000878    0.0000000199   -0.0000000198
  -0.0000000695   -0.0000000915    0.0000001477
  -0.0000000893   -0.0000001125   -0.0000000764
  -0.0000000144    0.0000000202   -0.0000000198
   0.0000000178    0.0000001858    0.0000000018
  -0.0000013132   -0.0000000568   -0.0000004768
   0.0000004455   -0.0000009945   -0.0000003326
  -0.0000000573    0.0000000688    0.0000000008
  -0.0000000425    0.0000000843   -0.0000005854
   0.0000014059   -0.0000009999    0.0000010000
  -0.0000000224    0.0000000497   -0.0000000496
  -0.0000000073   -0.0000000124    0.0000000125
  -0.0000000206   -0.0000000685    0.0000000686
   0.0000000977    0.0000000689   -0.0000000541
  -0.0000000029   -0.0000000120   -0.0000000612
  -0.0000000006   -0.0000000076    0.0000000249
   0.0000000937    0.0000000085    0.0000001124
  -0.0000002636    0.0000000839    0.0000008331
  -0.0000000234   -0.0000000679   -0.0000000532
  -0.0000000112    0.0000000079   -0.0000000772
   0.0000001751    0.0000005558    0.0000000350