280  
105  

1    
  0.0096607324491802   0.0025826824321541   0.0000000000000000
  -0.4762925400   -0.1167298900    0.0540799000
   0.1551347500    0.0273987300   -0.0051540600
  -0.0030535500   -0.0000016500    0.0000026300
   0.0029473700   -0.0000047700    0.0000019800
   0.0030687700    0.0000008200    0.0000002000
  -0.0029337600   -0.0000002000   -0.0000001900
  -0.0029704300   -0.0000017000   -0.0000008500
   0.0030677300   -0.0000001200   -0.0000008700
   0.1216425000   -0.0154016100    0.0241563900
   0.0120026300   -0.0262459800    0.0152854900
  -0.0021583700    0.0037927600    0.0028028500
   0.0022655700   -0.0037731400   -0.0028378500
  -0.0021700700   -0.0037609200   -0.0027973700
   0.0022525100    0.0037784100    0.0028401600
   0.1523343500    0.0909462900   -0.0589791400
   0.0232044800    0.0161614600   -0.0115831100
   0.0021629500   -0.0038034300    0.0028313200
  -0.0022454300    0.0038025700   -0.0028937000
  -0.0022075100    0.0038173700    0.0028792700
   0.0021542900   -0.0038110400   -0.0028417100
  -0.0022113100   -0.0038167800   -0.0028795400
   0.0021538300    0.0038114200    0.0028411500
   0.0021626300    0.0038029300   -0.0028311300
  -0.0022490700   -0.0038046500    0.0028945300
  -0.0167260600    0.0044190200   -0.0067436000
   0.0095458000    0.0193933800   -0.0074237100
  -0.0038455200    0.0049114300    0.0008269800
   0.0037314500   -0.0049709500   -0.0008691300
  -0.0038455400   -0.0049197200   -0.0008546300
   0.0037314000    0.0049609300    0.0008558800
  -0.0210694500    0.0190252700   -0.0096678900
   0.0018595400   -0.0139133900    0.0051520600
   0.0038347500   -0.0047846300    0.0007826900
  -0.0037435200    0.0048074600   -0.0007933900
  -0.0037738600    0.0047945900    0.0007887200
   0.0038458100   -0.0047713600   -0.0007784300
  -0.0037703500   -0.0047958800   -0.0007891200
   0.0038443300    0.0047710800    0.0007781100
   0.0038364000    0.0047853600   -0.0007829700
  -0.0037387500   -0.0048081500    0.0007929000
  -0.0029002500   -0.0047298800    0.0004420500
   0.0069565400    0.0049547400    0.0001157100
   0.0059991100    0.0103471800    0.0035392600
  -0.0059866400   -0.0103655400   -0.0035218900
   0.0059805900   -0.0103404800   -0.0035420400
  -0.0059972700    0.0103329900    0.0035307100
  -0.0053704500   -0.0016849600    0.0020231100
   0.0066566400   -0.0072375600    0.0016120000
  -0.0059228900   -0.0103766000    0.0035737300
   0.0059449300    0.0103856400   -0.0035807300
   0.0059539800    0.0104019300    0.0035798900
  -0.0059323600   -0.0103898400   -0.0035807600
   0.0059524700   -0.0104004300   -0.0035789600
  -0.0059335400    0.0103901300    0.0035808700
  -0.0059254300    0.0103771600   -0.0035727800
   0.0059407200   -0.0103853800    0.0035793200
  -0.0067642300   -0.0109180100    0.0031448100
   0.0095234200    0.0135520700   -0.0047889300
   0.0031168800    0.0103852100    0.0026772600
  -0.0031527900   -0.0104571600   -0.0027202000
   0.0031398200   -0.0103805200   -0.0026811500
  -0.0031525700    0.0104588700    0.0027036300
  -0.0114703700    0.0137889400   -0.0046487100
   0.0054385400   -0.0120742500    0.0039075300
  -0.0030272100   -0.0104259800    0.0027695100
   0.0030342900    0.0104588200   -0.0027877900
   0.0030175300    0.0104509800    0.0027763200
  -0.0030106500   -0.0104174600   -0.0027636600
   0.0030167100   -0.0104503800   -0.0027759700
  -0.0030124200    0.0104202300    0.0027649900
  -0.0030275000    0.0104259300   -0.0027693200
   0.0030343800   -0.0104606700    0.0027884100
   0.0160504800   -0.0183254400    0.0197624400
  -0.0038096400   -0.0028561900   -0.0079003700
  -0.0026554800   -0.0017146900    0.0050331800
   0.0027642600    0.0017090700   -0.0050556200
  -0.0026620100    0.0017126200   -0.0050313900
   0.0027509600   -0.0017156300    0.0050545800
   0.0202848000    0.0162010200   -0.0192786100
  -0.0039291100    0.0034818000    0.0058017300
   0.0026414700    0.0017180100    0.0050259500
  -0.0027487500   -0.0017310300   -0.0050361800
  -0.0027360100   -0.0017152600    0.0050384000
   0.0026503700    0.0017185100   -0.0050274400
  -0.0027334700    0.0017133800   -0.0050352700
   0.0026496000   -0.0017182300    0.0050268800
   0.0026413700   -0.0017167600   -0.0050253700
  -0.0027473000    0.0017278800    0.0050339400
   0.0007835500   -0.0049256600   -0.0049307300
   0.0014080200    0.0063454700    0.0070586600
   0.0006611500    0.0062685300   -0.0067250400
  -0.0006813700   -0.0062986500    0.0067386100
   0.0006642500   -0.0062706500    0.0067253400
  -0.0006826000    0.0062985500   -0.0067431700
  -0.0001767400    0.0046392100    0.0050840400
   0.0013733700   -0.0063252800   -0.0070213500
  -0.0007690500   -0.0062167900   -0.0067011100
   0.0007854000    0.0061967000    0.0066527000
   0.0007915100    0.0062321100   -0.0067010700
  -0.0007682300   -0.0062192200    0.0067020900
   0.0007956700   -0.0062337600    0.0067038600
  -0.0007712900    0.0062216100   -0.0067043900
  -0.0007698500    0.0062176400    0.0067030600
   0.0007873600   -0.0061958600   -0.0066596800
   0.0118422700    0.0024949300    0.0057263700
  -0.0109227600   -0.0023207800   -0.0067834700
  -0.0109960000   -0.0021506500    0.0068368700
   0.0109831600    0.0021936200   -0.0068457700
  -0.0109982500    0.0021474900   -0.0068353200
   0.0109808000   -0.0021887500    0.0068514200
   0.0118123900   -0.0025181000   -0.0058016600
  -0.0109708300    0.0022075800    0.0069350300
   0.0109145300    0.0021352300    0.0068083300
  -0.0109153700   -0.0020691700   -0.0067996000
  -0.0108793500   -0.0021632100    0.0068270900
   0.0109127700    0.0021404500   -0.0068096400
  -0.0108716000    0.0021727500   -0.0068283600
   0.0109142500   -0.0021377000    0.0068088000
   0.0109157800   -0.0021368900   -0.0068054700
  -0.0109094200    0.0020915800    0.0067946600
   0.0029882600   -0.0019972400    0.0005850700
  -0.0030670900    0.0018127700   -0.0005276300
  -0.0030334900    0.0018233100    0.0004429200
   0.0029292200   -0.0018017500   -0.0003752900
  -0.0030378300   -0.0018240200   -0.0004484400
   0.0029412200    0.0018033100    0.0003862500
   0.0026863000    0.0019047600   -0.0005767800
  -0.0030663200   -0.0018524800    0.0004321400
   0.0029962600   -0.0018160400    0.0004573000
  -0.0029502500    0.0018177000   -0.0004932900
  -0.0029987900    0.0018139400    0.0004398000
   0.0029952500   -0.0018180600   -0.0004548000
  -0.0030182000   -0.0018143000   -0.0004374500
   0.0030004300    0.0018170700    0.0004562400
   0.0030000100    0.0018163000   -0.0004566300
  -0.0029670300   -0.0018196300    0.0004938200
   0.0125103500    0.0057205600    0.0079353200
  -0.0121815300   -0.0046699400   -0.0080414000
  -0.0121731800   -0.0046880400    0.0080850900
   0.0122173200    0.0047254600   -0.0081235900
  -0.0121752500    0.0046837900   -0.0080811800
   0.0122023400   -0.0047196000    0.0081188800
   0.0126587200   -0.0054313600   -0.0080532200
  -0.0120895000    0.0045759900    0.0080713100
   0.0120892300    0.0046920400    0.0080699900
  -0.0120818600   -0.0046442500   -0.0080526100
  -0.0120798100   -0.0046965800    0.0080687600
   0.0120900300    0.0046909800   -0.0080691300
  -0.0120754500    0.0046996900   -0.0080667700
   0.0120899200   -0.0046938100    0.0080713600
   0.0120880700   -0.0046923100   -0.0080715200
  -0.0120795200    0.0046424800    0.0080534700
   0.0023266300    0.0044940000    0.0025277500
  -0.0011322700   -0.0056613200   -0.0038063100
  -0.0009082300   -0.0058771300    0.0036854700
   0.0009052100    0.0058410200   -0.0036496800
  -0.0009044800    0.0058915500   -0.0036769000
   0.0009157400   -0.0058186400    0.0036723100
   0.0008390600   -0.0035395900   -0.0021710000
  -0.0009057400    0.0057839100    0.0037694100
   0.0008388900    0.0058615900    0.0036140000
  -0.0007920000   -0.0058551900   -0.0036210700
  -0.0008386900   -0.0058458200    0.0036093300
   0.0008401200    0.0058629700   -0.0036145400
  -0.0008404700    0.0058442700   -0.0036069600
   0.0008390100   -0.0058639800    0.0036155700
   0.0008390100   -0.0058630300   -0.0036163200
  -0.0007944200    0.0058526500    0.0036199800
   0.0016048800   -0.0128498100    0.0076905600
  -0.0016933200    0.0129671700   -0.0077232600
  -0.0016421700    0.0130265600    0.0077210300
   0.0016397700   -0.0130204300   -0.0077587400
  -0.0016454500   -0.0130240700   -0.0077188200
   0.0016493800    0.0130180600    0.0077415700
   0.0016937200    0.0127707100   -0.0076635600
  -0.0016823900   -0.0130218800    0.0077864300
   0.0015976900   -0.0130331500    0.0077098700
  -0.0016038400    0.0130149700   -0.0076966900
  -0.0016008900    0.0130222700    0.0077103800
   0.0015973900   -0.0130318100   -0.0077094100
  -0.0015998100   -0.0130204200   -0.0077104700
   0.0015984400    0.0130319900    0.0077090500
   0.0015981800    0.0130333900   -0.0077095600
  -0.0016027300   -0.0130144900    0.0076972800
   0.0029613200   -0.0131380800    0.0035340500
  -0.0025909100    0.0134292800   -0.0037255700
  -0.0027597700    0.0133840000    0.0037840000
   0.0028054500   -0.0133221900   -0.0037734000
  -0.0027769000   -0.0133881700   -0.0037873100
   0.0027728300    0.0133393700    0.0037503100
   0.0028273300    0.0133913800   -0.0034240300
  -0.0026347300   -0.0134422400    0.0036818100
   0.0027812100   -0.0133847300    0.0037569100
  -0.0027780300    0.0133756100   -0.0037459300
  -0.0027782300    0.0133711300    0.0037529100
   0.0027795200   -0.0133828900   -0.0037575800
  -0.0027790100   -0.0133715000   -0.0037534800
   0.0027785600    0.0133824000    0.0037573900
   0.0027811700    0.0133844200   -0.0037567700
  -0.0027787700   -0.0133759500    0.0037460000
   0.0019373300   -0.0011702700    0.0000735500
  -0.0020649700    0.0007047700    0.0000638900
  -0.0020346300    0.0006078400   -0.0000081600
   0.0020566000   -0.0006108300    0.0000259300
  -0.0020353400   -0.0006092600    0.0000105400
   0.0020589200    0.0006053300   -0.0000254800
   0.0020250300    0.0012187200   -0.0000601600
  -0.0020542300   -0.0006161900   -0.0000463300
   0.0020358300   -0.0005841200    0.0000181800
  -0.0020545100    0.0005881300   -0.0000066300
  -0.0020426600    0.0005860700    0.0000084600
   0.0020366200   -0.0005843600   -0.0000180100
  -0.0020405600   -0.0005861100   -0.0000081200
   0.0020358400    0.0005848200    0.0000173500
   0.0020354100    0.0005839300   -0.0000180800
  -0.0020508100   -0.0005887800    0.0000059500
   0.0050658800   -0.0070503400    0.0040720300
  -0.0047536400    0.0070027600   -0.0039999600
  -0.0047857500    0.0070231300    0.0040397400
   0.0047718500   -0.0070345300   -0.0040307700
  -0.0047864600   -0.0070230200   -0.0040386200
   0.0047711400    0.0070306400    0.0040289900
   0.0049899800    0.0070214000   -0.0040499600
  -0.0047539600   -0.0070048700    0.0040082500
   0.0048022700   -0.0070335500    0.0040237900
  -0.0048212700    0.0069744900   -0.0040336000
  -0.0047945800    0.0070315400    0.0040203900
   0.0047991100   -0.0070341300   -0.0040249100
  -0.0047953100   -0.0070345600   -0.0040221700
   0.0048007000    0.0070352900    0.0040241700
   0.0048015000    0.0070350000   -0.0040268800
  -0.0048135000   -0.0069915600    0.0040555700
   0.0037093900   -0.0054421700    0.0101267400
  -0.0036865400    0.0053623800   -0.0100092700
  -0.0036733400    0.0053374300    0.0100123300
   0.0036647400   -0.0053453800   -0.0100355800
  -0.0036727400   -0.0053375400   -0.0100107100
   0.0036652400    0.0053410000    0.0100322600
   0.0036932800    0.0054326500   -0.0101171200
  -0.0036891400   -0.0053427500    0.0099960100
   0.0037121800   -0.0053377500    0.0100207200
  -0.0036931200    0.0053395000   -0.0099639200
  -0.0036899500    0.0053318400    0.0100524700
   0.0037102800   -0.0053360800   -0.0100226300
  -0.0036849200   -0.0053304000   -0.0100637700
   0.0037129000    0.0053360100    0.0100256800
   0.0037122900    0.0053385200   -0.0100210800
  -0.0036885100   -0.0053389500    0.0099665100
   0.0047938700    0.0025361900    0.0105798200
  -0.0045851600   -0.0025091000   -0.0105065000
  -0.0045459100   -0.0024771800    0.0105317000
   0.0045228700    0.0024982100   -0.0105516400
  -0.0045439700    0.0024749300   -0.0105300200
   0.0045273500   -0.0024859900    0.0105476800
   0.0047528000   -0.0025625400   -0.0104902500
  -0.0045524400    0.0024904200    0.0105164800
   0.0045397300    0.0024832100    0.0105332100
  -0.0045398300   -0.0024938600   -0.0105171900
  -0.0045472000   -0.0024660300    0.0105305200
   0.0045400900    0.0024829600   -0.0105348600
  -0.0045530600    0.0024597700   -0.0105294900
   0.0045413400   -0.0024826900    0.0105352800
   0.0045407800   -0.0024837300   -0.0105333400
  -0.0045446400    0.0024937500    0.0105092300
   0.0121399500    0.0097960400    0.0048274900
  -0.0124150400   -0.0098330300   -0.0042296400
  -0.0124237100   -0.0099392000    0.0043970500
   0.0124610000    0.0099671400   -0.0044075700
  -0.0124279100    0.0099290100   -0.0043998300
   0.0124407300   -0.0099824000    0.0044055500
   0.0121367100   -0.0099668600   -0.0047664900
  -0.0124241000    0.0098782400    0.0041754600
   0.0124562700    0.0098961900    0.0043666600
  -0.0124520600   -0.0099129300   -0.0043699000
  -0.0124563800   -0.0099085700    0.0043741300
   0.0124580800    0.0098951400   -0.0043679900
  -0.0124556900    0.0099084200   -0.0043738900
   0.0124571700   -0.0098958400    0.0043687000
   0.0124565000   -0.0098963000   -0.0043667300
  -0.0124508500    0.0099136900    0.0043697700

1    
 -0.0096607324491802  -0.0025826824321541   0.0000000000000000
   0.4936195300    0.1118220000   -0.0505314500
  -0.1741057200   -0.0270313400    0.0052359600
  -0.0030822300    0.0000006500   -0.0000032000
   0.0032220900    0.0000041400   -0.0000028700
   0.0030972700    0.0000007800   -0.0000003200
  -0.0032090300    0.0000021900   -0.0000015000
  -0.0031768800    0.0000014400   -0.0000001300
   0.0030994100   -0.0000008400   -0.0000005800
  -0.1179595400    0.0067808800   -0.0179448600
  -0.0165218300    0.0344042800   -0.0213099200
  -0.0020219900    0.0039436900    0.0029611300
   0.0019272200   -0.0039588800   -0.0029183600
  -0.0020115800   -0.0039770800   -0.0029683200
   0.0019410400    0.0039523300    0.0029162000
  -0.1456338500   -0.0778291300    0.0491456600
  -0.0280412200   -0.0245364600    0.0178127600
   0.0020422000   -0.0039254700    0.0029266500
  -0.0019418000    0.0039309500   -0.0028692800
  -0.0019837200    0.0039155300    0.0028844700
   0.0020520900   -0.0039170600   -0.0029168300
  -0.0019799600   -0.0039134500   -0.0028822900
   0.0020514500    0.0039163600    0.0029155700
   0.0020405900    0.0039241000   -0.0029253600
  -0.0019398600   -0.0039295300    0.0028680300
   0.0247854900   -0.0135615200    0.0079927300
  -0.0173743100   -0.0100666700    0.0060356900
  -0.0039673800    0.0045258800    0.0006757400
   0.0040961700   -0.0044568400   -0.0006256800
  -0.0039648000   -0.0045156000   -0.0006452700
   0.0040965700    0.0044701900    0.0006401500
   0.0288771300   -0.0095460400    0.0082683400
  -0.0098978600    0.0046277700   -0.0037942600
   0.0039876800   -0.0046559600    0.0007186400
  -0.0040759900    0.0046327000   -0.0007093800
  -0.0040471700    0.0046447900    0.0007132700
   0.0039839800   -0.0046699000   -0.0007234800
  -0.0040505600   -0.0046464500   -0.0007151400
   0.0039833300    0.0046708900    0.0007245400
   0.0039890800    0.0046565800   -0.0007191100
  -0.0040781700   -0.0046333000    0.0007099500
  -0.0090890200   -0.0163942300    0.0069463300
   0.0050476600    0.0160400800   -0.0074340300
   0.0060279000    0.0106296400    0.0037591100
  -0.0060347900   -0.0106134200   -0.0037755600
   0.0060488500   -0.0106355800   -0.0037563000
  -0.0060244200    0.0106429100    0.0037655200
  -0.0066506900    0.0226378400   -0.0092802100
   0.0053556400   -0.0138090800    0.0057447500
  -0.0061042100   -0.0106047500    0.0037266300
   0.0060909000    0.0105913100   -0.0037179600
   0.0060794800    0.0105790700    0.0037187300
  -0.0060975800   -0.0105901000   -0.0037166600
   0.0060796900   -0.0105769900   -0.0037187800
  -0.0060969300    0.0105895700    0.0037167900
  -0.0061050600    0.0106044500   -0.0037259700
   0.0060887500   -0.0105910700    0.0037182600
   0.0010083600   -0.0097171600    0.0022930800
  -0.0036575900    0.0071299200   -0.0006674100
   0.0027506600    0.0103098800    0.0027934400
  -0.0027119500   -0.0102340300   -0.0027483400
   0.0027307400   -0.0103159300   -0.0027909200
  -0.0027128200    0.0102343700    0.0027654400
   0.0056122400    0.0069243600   -0.0008360900
   0.0003275300   -0.0085828400    0.0015388700
  -0.0028400800   -0.0102553900    0.0026944900
   0.0028419200    0.0102225100   -0.0026750700
   0.0028551900    0.0102315700    0.0026867900
  -0.0028528000   -0.0102611300   -0.0026987100
   0.0028543000   -0.0102301700   -0.0026862900
  -0.0028546500    0.0102622000    0.0026991100
  -0.0028415400    0.0102538300   -0.0026937000
   0.0028401400   -0.0102231600    0.0026754400
  -0.0105746900    0.0215765700   -0.0093732700
  -0.0015006000   -0.0005965700   -0.0022834100
  -0.0026812500   -0.0017186900    0.0050535300
   0.0025212800    0.0017281800   -0.0050245700
  -0.0026703200    0.0017214200   -0.0050559000
   0.0025367900   -0.0017208300    0.0050265000
  -0.0146344500   -0.0194133600    0.0087123200
  -0.0014015000   -0.0000548300    0.0043929400
   0.0026547600    0.0017206400    0.0050532900
  -0.0025719000   -0.0017026200   -0.0050482400
  -0.0025847300   -0.0017196400    0.0050460000
   0.0026502500    0.0017186700   -0.0050510700
  -0.0025843700    0.0017217900   -0.0050474400
   0.0026484500   -0.0017194900    0.0050512100
   0.0026539100   -0.0017207400   -0.0050534200
  -0.0025721500    0.0017059400    0.0050494900
  -0.0022167700   -0.0075439200   -0.0085257700
   0.0000240800    0.0061230800    0.0063668700
   0.0007670200    0.0061961900   -0.0066834600
  -0.0007613200   -0.0061699800    0.0066806600
   0.0007627400   -0.0061948800    0.0066822900
  -0.0007613000    0.0061675300   -0.0066752600
  -0.0012784100    0.0078171700    0.0083839600
   0.0000562500   -0.0061368700   -0.0064033500
  -0.0006674200   -0.0062522200   -0.0067182500
   0.0006444400    0.0062730600    0.0067612100
   0.0006373900    0.0062404700   -0.0067138900
  -0.0006643400   -0.0062503600    0.0067146900
   0.0006327200   -0.0062392100    0.0067125400
  -0.0006656000    0.0062511600   -0.0067155200
  -0.0006676900    0.0062538400    0.0067194300
   0.0006413700   -0.0062746200   -0.0067574900
   0.0100478000    0.0018010500    0.0079141100
  -0.0109729600   -0.0019748200   -0.0068703000
  -0.0108998300   -0.0021405000    0.0068152100
   0.0109130000    0.0020920100   -0.0067955600
  -0.0108990800    0.0021430800   -0.0068154300
   0.0109153200   -0.0020999200    0.0067904300
   0.0100744500   -0.0017811400   -0.0078374700
  -0.0109260100    0.0020898100    0.0067204100
   0.0109798500    0.0021559600    0.0068389600
  -0.0109819200   -0.0022246300   -0.0068531900
  -0.0110185000   -0.0021275400    0.0068240800
   0.0109834300    0.0021523000   -0.0068375300
  -0.0110255700    0.0021188900   -0.0068207000
   0.0109865700   -0.0021475200    0.0068363500
   0.0109829400   -0.0021518700   -0.0068396100
  -0.0109879900    0.0021989700    0.0068556400
   0.0030400300   -0.0016513000    0.0003149300
  -0.0029558200    0.0018329800   -0.0003754000
  -0.0029779600    0.0018231700    0.0004567500
   0.0030889100   -0.0018472600   -0.0005202700
  -0.0029775200   -0.0018207100   -0.0004536300
   0.0030760300    0.0018440500    0.0005113200
   0.0033341800    0.0017443700   -0.0003210600
  -0.0029530300   -0.0017951000    0.0004675800
   0.0030176000   -0.0018290100    0.0004389200
  -0.0030618800    0.0018276200   -0.0004050900
  -0.0030142200    0.0018309900    0.0004589500
   0.0030179900   -0.0018296900   -0.0004391000
  -0.0029936500   -0.0018313800   -0.0004607300
   0.0030162600    0.0018290000    0.0004417300
   0.0030163000    0.0018305100   -0.0004385600
  -0.0030471100   -0.0018265400    0.0004047600
   0.0117276700    0.0036615700    0.0082044000
  -0.0120733700   -0.0047077000   -0.0081024500
  -0.0120767200   -0.0046823900    0.0080581700
   0.0120252200    0.0046507300   -0.0080210900
  -0.0120750100    0.0046849600   -0.0080611800
   0.0120410100   -0.0046550700    0.0080226000
   0.0115734900   -0.0039519000   -0.0080844000
  -0.0121623500    0.0048027000    0.0080717700
   0.0121602100    0.0046812100    0.0080716000
  -0.0121703100   -0.0047264000   -0.0080902900
  -0.0121743400   -0.0046755600    0.0080766700
   0.0121591700    0.0046801500   -0.0080728100
  -0.0121758700    0.0046711600   -0.0080779000
   0.0121609600   -0.0046808900    0.0080744500
   0.0121602800   -0.0046823800   -0.0080739100
  -0.0121740400    0.0047311600    0.0080923800
  -0.0005321500    0.0072603000    0.0047584600
  -0.0006610200   -0.0060788900   -0.0034703800
  -0.0008661300   -0.0058586600    0.0035924400
   0.0008498900    0.0058982800   -0.0036242000
  -0.0008698000    0.0058465400   -0.0036015400
   0.0008435500   -0.0059169900    0.0036003800
   0.0009398700   -0.0082020900   -0.0050959300
  -0.0008886200    0.0059561700    0.0035053100
   0.0009235600    0.0058777700    0.0036611800
  -0.0009780600   -0.0058848600   -0.0036591800
  -0.0009318300   -0.0058948600    0.0036702700
   0.0009237500    0.0058780700   -0.0036637600
  -0.0009302300    0.0058956500   -0.0036733200
   0.0009231700   -0.0058786200    0.0036646800
   0.0009227500   -0.0058801200   -0.0036640600
  -0.0009741900    0.0058884100    0.0036606900
   0.0016484900   -0.0132171400    0.0077205100
  -0.0015502700    0.0130996300   -0.0076916000
  -0.0016040400    0.0130404900    0.0076933600
   0.0016093300   -0.0130448400   -0.0076570300
  -0.0016024000   -0.0130421300   -0.0076960000
   0.0016003500    0.0130463300    0.0076731300
   0.0015592900    0.0132913600   -0.0077500400
  -0.0015611500   -0.0130462900    0.0076283800
   0.0016532200   -0.0130317100    0.0077051900
  -0.0016419500    0.0130508500   -0.0077187600
  -0.0016451000    0.0130441600    0.0077044800
   0.0016535700   -0.0130323500   -0.0077044700
  -0.0016437100   -0.0130447700   -0.0077038300
   0.0016548400    0.0130330400    0.0077042200
   0.0016539400    0.0130320100   -0.0077046700
  -0.0016404600   -0.0130512400    0.0077178900
   0.0026003600   -0.0136513600    0.0039905800
  -0.0029680500    0.0133615200   -0.0037983200
  -0.0027951600    0.0134011000    0.0037356100
   0.0027540600   -0.0134640900   -0.0037477300
  -0.0027773700   -0.0133973300   -0.0037332100
   0.0027861100    0.0134463500    0.0037697200
   0.0027322900    0.0133951000   -0.0041029200
  -0.0029248800   -0.0133482500    0.0038399100
   0.0027779800   -0.0134017200    0.0037632700
  -0.0027772300    0.0134105000   -0.0037741800
  -0.0027778900    0.0134152800    0.0037670500
   0.0027797700   -0.0134021900   -0.0037615400
  -0.0027778100   -0.0134161800   -0.0037678600
   0.0027791100    0.0134018000    0.0037615000
   0.0027779100    0.0134014100   -0.0037633100
  -0.0027771900   -0.0134121100    0.0037745800
   0.0021271400   -0.0000308700   -0.0000697200
  -0.0020022300    0.0004938700   -0.0000680400
  -0.0020334000    0.0005895700    0.0000131100
   0.0020119900   -0.0005858700   -0.0000292700
  -0.0020317600   -0.0005898600   -0.0000126800
   0.0020094000    0.0005911800    0.0000283500
   0.0020415300   -0.0000159300    0.0000567000
  -0.0020129800   -0.0005818900    0.0000530700
   0.0020326600   -0.0006150800   -0.0000175500
  -0.0020124900    0.0006099200    0.0000047800
  -0.0020235900    0.0006120900   -0.0000056900
   0.0020333600   -0.0006144200    0.0000163400
  -0.0020269900   -0.0006101600    0.0000033100
   0.0020333600    0.0006146000   -0.0000166100
   0.0020334100    0.0006146200    0.0000170900
  -0.0020167700   -0.0006086500   -0.0000032400
   0.0045304600   -0.0070172700    0.0039875300
  -0.0048381600    0.0070621300   -0.0040604700
  -0.0048043900    0.0070390100    0.0040231400
   0.0048241600   -0.0070303500   -0.0040292300
  -0.0048049100   -0.0070403200   -0.0040232000
   0.0048250200    0.0070335900    0.0040313800
   0.0046048800    0.0070465400   -0.0040095200
  -0.0048384400   -0.0070606200    0.0040529000
   0.0047937800   -0.0070320200    0.0040358700
  -0.0047687700    0.0070884700   -0.0040283800
  -0.0047945900    0.0070304400    0.0040425400
   0.0047941300   -0.0070284400   -0.0040365400
  -0.0047942400   -0.0070278700   -0.0040394500
   0.0047952300    0.0070292300    0.0040357500
   0.0047947800    0.0070295300   -0.0040323600
  -0.0047763500   -0.0070714800    0.0040065400
   0.0036954900   -0.0052337500    0.0099104800
  -0.0037125800    0.0053131900   -0.0100283200
  -0.0037219400    0.0053379500    0.0100239000
   0.0037406600   -0.0053310400   -0.0100025600
  -0.0037187600   -0.0053381600   -0.0100244000
   0.0037368800    0.0053348100    0.0100054400
   0.0037077700    0.0052423900   -0.0099191700
  -0.0037072400   -0.0053326400    0.0100403500
   0.0036883800   -0.0053378100    0.0100165600
  -0.0036956800    0.0053353900   -0.0100709700
  -0.0037022000    0.0053430100    0.0099838000
   0.0036892300   -0.0053389200   -0.0100143400
  -0.0037096000   -0.0053444200   -0.0099724100
   0.0036936800    0.0053390900    0.0100131200
   0.0036901100    0.0053370100   -0.0100166200
  -0.0037043300   -0.0053364500    0.0100691100
   0.0042987900    0.0024304100    0.0104966100
  -0.0045036700   -0.0024551400   -0.0105658100
  -0.0045417300   -0.0024873700    0.0105378400
   0.0045685500    0.0024694900   -0.0105224300
  -0.0045426300    0.0024896400   -0.0105396000
   0.0045637800   -0.0024800600    0.0105235900
   0.0043392700   -0.0024028200   -0.0105837600
  -0.0045349400    0.0024714800    0.0105525900
   0.0045504900    0.0024802500    0.0105347900
  -0.0045473700   -0.0024691600   -0.0105509400
  -0.0045398300   -0.0024966100    0.0105375100
   0.0045513000    0.0024810600   -0.0105356200
  -0.0045346100    0.0025043500   -0.0105402600
   0.0045508800   -0.0024831000    0.0105364700
   0.0045502200   -0.0024803600   -0.0105369400
  -0.0045420500    0.0024690300    0.0105571500
   0.0127432800    0.0100210300    0.0039369300
  -0.0124706300   -0.0099866600   -0.0045386000
  -0.0124623900   -0.0098814900    0.0043659200
   0.0124250500    0.0098524200   -0.0043561200
  -0.0124568900    0.0098912600   -0.0043652200
   0.0124452700   -0.0098377900    0.0043572000
   0.0127449700   -0.0098536600   -0.0039981200
  -0.0124639200    0.0099396400    0.0045908900
   0.0124276000    0.0099260700    0.0043970700
  -0.0124320400   -0.0099079100   -0.0043942800
  -0.0124249100   -0.0099149100    0.0043914200
   0.0124280200    0.0099260500   -0.0043953400
  -0.0124269000    0.0099138800   -0.0043909500
   0.0124268900   -0.0099267800    0.0043962600
   0.0124282200   -0.0099259300   -0.0043972600
  -0.0124325400    0.0099079400    0.0043939100

1    
  0.0000000000000000   0.0000000000000000   0.0100000000000000
   0.0008378600    0.2024194600   -0.2720408900
  -0.0027794900   -0.0201202300    0.0661127700
  -0.0031139600   -0.0000102200   -0.0000178900
   0.0031217900   -0.0000086500   -0.0000201400
   0.0031231000    0.0000016400   -0.0000008300
  -0.0031241600    0.0000027500   -0.0000014300
  -0.0031244900    0.0000012600   -0.0000000300
   0.0031222000   -0.0000005300   -0.0000009000
   0.0449177900   -0.0648612000    0.1023934500
   0.0125183300    0.0096260600   -0.0074916800
  -0.0021784500    0.0038345600    0.0028904600
   0.0021538900   -0.0038474900   -0.0028841000
  -0.0021584500   -0.0038783700   -0.0028836700
   0.0021748100    0.0038624700    0.0028859600
  -0.0385640100   -0.0543105500    0.0958540100
  -0.0169340100    0.0019454000   -0.0018996600
   0.0021723600   -0.0038547400    0.0028859300
  -0.0021727100    0.0038557400   -0.0028867000
  -0.0021741100    0.0038552800    0.0028864200
   0.0021710700   -0.0038545400   -0.0028866500
  -0.0021696100   -0.0038525400   -0.0028848100
   0.0021718100    0.0038542600    0.0028849100
   0.0021725900    0.0038536100   -0.0028859200
  -0.0021696500   -0.0038543900    0.0028852600
  -0.0013925800   -0.0354077300    0.0132489100
  -0.0135046000    0.0026304100    0.0058188400
  -0.0039616500    0.0047173900    0.0007857800
   0.0039393800   -0.0047237100   -0.0007359100
  -0.0039386600   -0.0047022300   -0.0007272800
   0.0039710600    0.0046880200    0.0007711400
   0.0092594800   -0.0254826600    0.0117162300
   0.0056648500   -0.0069067100    0.0073941000
   0.0039551400   -0.0047106400    0.0007565800
  -0.0039561700    0.0047105400   -0.0007566000
  -0.0039554300    0.0047105300    0.0007559100
   0.0039567300   -0.0047112300   -0.0007570300
  -0.0039580900   -0.0047112700   -0.0007577600
   0.0039548100    0.0047127000    0.0007576900
   0.0039550900    0.0047124800   -0.0007576800
  -0.0039584900   -0.0047104500    0.0007564100
  -0.0083114600   -0.0068014400   -0.0057800500
   0.0058908500    0.0126946100   -0.0043860400
   0.0059382600    0.0104756000    0.0036162900
  -0.0059327100   -0.0104193500   -0.0036631700
   0.0059457400   -0.0104385700   -0.0036552800
  -0.0059474400    0.0104957200    0.0036096900
  -0.0035901500    0.0140181300   -0.0130093100
   0.0059939300   -0.0081409200    0.0028347500
  -0.0059431900   -0.0104581200    0.0036368200
   0.0059440200    0.0104576200   -0.0036368800
   0.0059426100    0.0104592100    0.0036357600
  -0.0059449700   -0.0104571800   -0.0036361900
   0.0059428600   -0.0104567300   -0.0036368600
  -0.0059445400    0.0104575500    0.0036357100
  -0.0059445400    0.0104584600   -0.0036367800
   0.0059419000   -0.0104568400    0.0036360600
  -0.0080126500   -0.0131590200    0.0045494700
  -0.0013400800    0.0087067900   -0.0026441600
   0.0028716900    0.0104148200    0.0027422100
  -0.0028765500   -0.0103806400   -0.0028072200