phonopy:
  version: 2.7.0
  calculator: vasp
  frequency_unit_conversion_factor: 15.633302
  symmetry_tolerance: 1.00000e-03

physical_unit:
  atomic_mass: "AMU"

space_group:
  type: "Cmce"
  number: 64
  Hall_symbol: "-C 2bc 2"

supercell_matrix:
- [   1,   0,   0 ]
- [   0,   1,   0 ]
- [   0,   0,   1 ]

primitive_cell:
  lattice:
  - [    26.988906280017400,     0.000000000000000,     0.000000000000000 ] # a
  - [     0.000000000000000,     7.215164531170587,     0.000000000000000 ] # b
  - [     0.000000000000000,     0.000000000000000,    14.320544648958441 ] # c
  points:
  - symbol: C  # 1
    coordinates: [  0.027393326016158,  0.000000000000000,  0.000000000000000 ]
    mass: 12.010700
  - symbol: C  # 2
    coordinates: [  0.972606673983842,  0.000000000000000,  0.000000000000000 ]
    mass: 12.010700
  - symbol: C  # 3
    coordinates: [  0.972606673983842,  0.500000000000000,  0.500000000000000 ]
    mass: 12.010700
  - symbol: C  # 4
    coordinates: [  0.027393326016158,  0.500000000000000,  0.500000000000000 ]
    mass: 12.010700
  - symbol: C  # 5
    coordinates: [  0.527393326016158,  0.500000000000000,  0.000000000000000 ]
    mass: 12.010700
  - symbol: C  # 6
    coordinates: [  0.472606673983842,  0.500000000000000,  0.000000000000000 ]
    mass: 12.010700
  - symbol: C  # 7
    coordinates: [  0.472606673983842,  0.000000000000000,  0.500000000000000 ]
    mass: 12.010700
  - symbol: C  # 8
    coordinates: [  0.527393326016158,  0.000000000000000,  0.500000000000000 ]
    mass: 12.010700
  - symbol: C  # 9
    coordinates: [  0.053117442107303,  0.856233989342612,  0.048659353903723 ]
    mass: 12.010700
  - symbol: C  # 10
    coordinates: [  0.946882557892697,  0.143766010657388,  0.951340646096277 ]
    mass: 12.010700
  - symbol: C  # 11
    coordinates: [  0.946882557892697,  0.643766010657388,  0.548659353903723 ]
    mass: 12.010700
  - symbol: C  # 12
    coordinates: [  0.053117442107303,  0.356233989342612,  0.451340646096277 ]
    mass: 12.010700
  - symbol: C  # 13
    coordinates: [  0.946882557892697,  0.356233989342612,  0.451340646096277 ]
    mass: 12.010700
  - symbol: C  # 14
    coordinates: [  0.053117442107303,  0.643766010657388,  0.548659353903723 ]
    mass: 12.010700
  - symbol: C  # 15
    coordinates: [  0.053117442107303,  0.143766010657388,  0.951340646096277 ]
    mass: 12.010700
  - symbol: C  # 16
    coordinates: [  0.946882557892697,  0.856233989342612,  0.048659353903723 ]
    mass: 12.010700
  - symbol: C  # 17
    coordinates: [  0.553117442107303,  0.356233989342612,  0.048659353903723 ]
    mass: 12.010700
  - symbol: C  # 18
    coordinates: [  0.446882557892697,  0.643766010657388,  0.951340646096277 ]
    mass: 12.010700
  - symbol: C  # 19
    coordinates: [  0.446882557892697,  0.143766010657388,  0.548659353903723 ]
    mass: 12.010700
  - symbol: C  # 20
    coordinates: [  0.553117442107303,  0.856233989342612,  0.451340646096277 ]
    mass: 12.010700
  - symbol: C  # 21
    coordinates: [  0.446882557892697,  0.856233989342612,  0.451340646096277 ]
    mass: 12.010700
  - symbol: C  # 22
    coordinates: [  0.553117442107303,  0.143766010657388,  0.548659353903723 ]
    mass: 12.010700
  - symbol: C  # 23
    coordinates: [  0.553117442107303,  0.643766010657388,  0.951340646096277 ]
    mass: 12.010700
  - symbol: C  # 24
    coordinates: [  0.446882557892697,  0.356233989342612,  0.048659353903723 ]
    mass: 12.010700
  - symbol: C  # 25
    coordinates: [  0.026875139964199,  0.705124456108940,  0.087159379961455 ]
    mass: 12.010700
  - symbol: C  # 26
    coordinates: [  0.973124860035801,  0.294875543891060,  0.912840620038545 ]
    mass: 12.010700
  - symbol: C  # 27
    coordinates: [  0.973124860035801,  0.794875543891060,  0.587159379961455 ]
    mass: 12.010700
  - symbol: C  # 28
    coordinates: [  0.026875139964199,  0.205124456108940,  0.412840620038545 ]
    mass: 12.010700
  - symbol: C  # 29
    coordinates: [  0.973124860035801,  0.205124456108940,  0.412840620038545 ]
    mass: 12.010700
  - symbol: C  # 30
    coordinates: [  0.026875139964199,  0.794875543891060,  0.587159379961455 ]
    mass: 12.010700
  - symbol: C  # 31
    coordinates: [  0.026875139964199,  0.294875543891060,  0.912840620038545 ]
    mass: 12.010700
  - symbol: C  # 32
    coordinates: [  0.973124860035801,  0.705124456108940,  0.087159379961455 ]
    mass: 12.010700
  - symbol: C  # 33
    coordinates: [  0.526875139964199,  0.205124456108940,  0.087159379961455 ]
    mass: 12.010700
  - symbol: C  # 34
    coordinates: [  0.473124860035801,  0.794875543891060,  0.912840620038545 ]
    mass: 12.010700
  - symbol: C  # 35
    coordinates: [  0.473124860035801,  0.294875543891060,  0.587159379961455 ]
    mass: 12.010700
  - symbol: C  # 36
    coordinates: [  0.526875139964199,  0.705124456108940,  0.412840620038545 ]
    mass: 12.010700
  - symbol: C  # 37
    coordinates: [  0.473124860035801,  0.705124456108940,  0.412840620038545 ]
    mass: 12.010700
  - symbol: C  # 38
    coordinates: [  0.526875139964199,  0.294875543891060,  0.587159379961455 ]
    mass: 12.010700
  - symbol: C  # 39
    coordinates: [  0.526875139964199,  0.794875543891060,  0.912840620038545 ]
    mass: 12.010700
  - symbol: C  # 40
    coordinates: [  0.473124860035801,  0.205124456108940,  0.087159379961455 ]
    mass: 12.010700
  - symbol: C  # 41
    coordinates: [  0.051901924634684,  0.554791049182434,  0.133237251171873 ]
    mass: 12.010700
  - symbol: C  # 42
    coordinates: [  0.948098075365316,  0.445208950817559,  0.866762748828127 ]
    mass: 12.010700
  - symbol: C  # 43
    coordinates: [  0.948098075365316,  0.945208950817566,  0.633237251171873 ]
    mass: 12.010700
  - symbol: C  # 44
    coordinates: [  0.051901924634684,  0.054791049182442,  0.366762748828127 ]
    mass: 12.010700
  - symbol: C  # 45
    coordinates: [  0.948098075365316,  0.054791049182442,  0.366762748828127 ]
    mass: 12.010700
  - symbol: C  # 46
    coordinates: [  0.051901924634684,  0.945208950817566,  0.633237251171873 ]
    mass: 12.010700
  - symbol: C  # 47
    coordinates: [  0.051901924634684,  0.445208950817559,  0.866762748828127 ]
    mass: 12.010700
  - symbol: C  # 48
    coordinates: [  0.948098075365316,  0.554791049182434,  0.133237251171873 ]
    mass: 12.010700
  - symbol: C  # 49
    coordinates: [  0.551901924634684,  0.054791049182442,  0.133237251171873 ]
    mass: 12.010700
  - symbol: C  # 50
    coordinates: [  0.448098075365316,  0.945208950817566,  0.866762748828127 ]
    mass: 12.010700
  - symbol: C  # 51
    coordinates: [  0.448098075365316,  0.445208950817559,  0.633237251171873 ]
    mass: 12.010700
  - symbol: C  # 52
    coordinates: [  0.551901924634684,  0.554791049182434,  0.366762748828127 ]
    mass: 12.010700
  - symbol: C  # 53
    coordinates: [  0.448098075365316,  0.554791049182434,  0.366762748828127 ]
    mass: 12.010700
  - symbol: C  # 54
    coordinates: [  0.551901924634684,  0.445208950817558,  0.633237251171873 ]
    mass: 12.010700
  - symbol: C  # 55
    coordinates: [  0.551901924634684,  0.945208950817566,  0.866762748828127 ]
    mass: 12.010700
  - symbol: C  # 56
    coordinates: [  0.448098075365316,  0.054791049182442,  0.133237251171873 ]
    mass: 12.010700
  - symbol: C  # 57
    coordinates: [  0.026359486616032,  0.412524326810373,  0.174707393597499 ]
    mass: 12.010700
  - symbol: C  # 58
    coordinates: [  0.973640513383968,  0.587475673189627,  0.825292606402501 ]
    mass: 12.010700
  - symbol: C  # 59
    coordinates: [  0.973640513383968,  0.087475673189627,  0.674707393597499 ]
    mass: 12.010700
  - symbol: C  # 60
    coordinates: [  0.026359486616032,  0.912524326810373,  0.325292606402501 ]
    mass: 12.010700
  - symbol: C  # 61
    coordinates: [  0.973640513383968,  0.912524326810373,  0.325292606402501 ]
    mass: 12.010700
  - symbol: C  # 62
    coordinates: [  0.026359486616032,  0.087475673189627,  0.674707393597499 ]
    mass: 12.010700
  - symbol: C  # 63
    coordinates: [  0.026359486616032,  0.587475673189627,  0.825292606402501 ]
    mass: 12.010700
  - symbol: C  # 64
    coordinates: [  0.973640513383968,  0.412524326810373,  0.174707393597499 ]
    mass: 12.010700
  - symbol: C  # 65
    coordinates: [  0.526359486616032,  0.912524326810373,  0.174707393597499 ]
    mass: 12.010700
  - symbol: C  # 66
    coordinates: [  0.473640513383968,  0.087475673189627,  0.825292606402501 ]
    mass: 12.010700
  - symbol: C  # 67
    coordinates: [  0.473640513383968,  0.587475673189627,  0.674707393597499 ]
    mass: 12.010700
  - symbol: C  # 68
    coordinates: [  0.526359486616032,  0.412524326810373,  0.325292606402501 ]
    mass: 12.010700
  - symbol: C  # 69
    coordinates: [  0.473640513383968,  0.412524326810373,  0.325292606402501 ]
    mass: 12.010700
  - symbol: C  # 70
    coordinates: [  0.526359486616032,  0.587475673189627,  0.674707393597499 ]
    mass: 12.010700
  - symbol: C  # 71
    coordinates: [  0.526359486616032,  0.087475673189627,  0.825292606402501 ]
    mass: 12.010700
  - symbol: C  # 72
    coordinates: [  0.473640513383968,  0.912524326810373,  0.174707393597499 ]
    mass: 12.010700
  - symbol: C  # 73
    coordinates: [  0.107253062247077,  0.865910149107832,  0.072249491541997 ]
    mass: 12.010700
  - symbol: C  # 74
    coordinates: [  0.892746937752923,  0.134089850892175,  0.927750508458003 ]
    mass: 12.010700
  - symbol: C  # 75
    coordinates: [  0.892746937752923,  0.634089850892168,  0.572249491541997 ]
    mass: 12.010700
  - symbol: C  # 76
    coordinates: [  0.107253062247077,  0.365910149107825,  0.427750508458003 ]
    mass: 12.010700
  - symbol: C  # 77
    coordinates: [  0.892746937752923,  0.365910149107825,  0.427750508458003 ]
    mass: 12.010700
  - symbol: C  # 78
    coordinates: [  0.107253062247077,  0.634089850892168,  0.572249491541997 ]
    mass: 12.010700
  - symbol: C  # 79
    coordinates: [  0.107253062247077,  0.134089850892175,  0.927750508458003 ]
    mass: 12.010700
  - symbol: C  # 80
    coordinates: [  0.892746937752923,  0.865910149107832,  0.072249491541997 ]
    mass: 12.010700
  - symbol: C  # 81
    coordinates: [  0.607253062247077,  0.365910149107825,  0.072249491541997 ]
    mass: 12.010700
  - symbol: C  # 82
    coordinates: [  0.392746937752923,  0.634089850892168,  0.927750508458003 ]
    mass: 12.010700
  - symbol: C  # 83
    coordinates: [  0.392746937752923,  0.134089850892175,  0.572249491541997 ]
    mass: 12.010700
  - symbol: C  # 84
    coordinates: [  0.607253062247077,  0.865910149107832,  0.427750508458003 ]
    mass: 12.010700
  - symbol: C  # 85
    coordinates: [  0.392746937752923,  0.865910149107832,  0.427750508458003 ]
    mass: 12.010700
  - symbol: C  # 86
    coordinates: [  0.607253062247077,  0.134089850892175,  0.572249491541997 ]
    mass: 12.010700
  - symbol: C  # 87
    coordinates: [  0.607253062247077,  0.634089850892168,  0.927750508458003 ]
    mass: 12.010700
  - symbol: C  # 88
    coordinates: [  0.392746937752923,  0.365910149107825,  0.072249491541997 ]
    mass: 12.010700
  - symbol: C  # 89
    coordinates: [  0.142528394070312,  0.752466476533500,  0.028291546372375 ]
    mass: 12.010700
  - symbol: C  # 90
    coordinates: [  0.857471605929688,  0.247533523466500,  0.971708453627625 ]
    mass: 12.010700
  - symbol: C  # 91
    coordinates: [  0.857471605929688,  0.747533523466500,  0.528291546372375 ]
    mass: 12.010700
  - symbol: C  # 92
    coordinates: [  0.142528394070312,  0.252466476533500,  0.471708453627625 ]
    mass: 12.010700
  - symbol: C  # 93
    coordinates: [  0.857471605929688,  0.252466476533500,  0.471708453627625 ]
    mass: 12.010700
  - symbol: C  # 94
    coordinates: [  0.142528394070312,  0.747533523466500,  0.528291546372375 ]
    mass: 12.010700
  - symbol: C  # 95
    coordinates: [  0.142528394070312,  0.247533523466500,  0.971708453627625 ]
    mass: 12.010700
  - symbol: C  # 96
    coordinates: [  0.857471605929688,  0.752466476533500,  0.028291546372375 ]
    mass: 12.010700
  - symbol: C  # 97
    coordinates: [  0.642528394070312,  0.252466476533500,  0.028291546372375 ]
    mass: 12.010700
  - symbol: C  # 98
    coordinates: [  0.357471605929688,  0.747533523466500,  0.971708453627625 ]
    mass: 12.010700
  - symbol: C  # 99
    coordinates: [  0.357471605929688,  0.247533523466500,  0.528291546372375 ]
    mass: 12.010700
  - symbol: C  # 100
    coordinates: [  0.642528394070312,  0.752466476533500,  0.471708453627625 ]
    mass: 12.010700
  - symbol: C  # 101
    coordinates: [  0.357471605929688,  0.752466476533500,  0.471708453627625 ]
    mass: 12.010700
  - symbol: C  # 102
    coordinates: [  0.642528394070312,  0.247533523466500,  0.528291546372375 ]
    mass: 12.010700
  - symbol: C  # 103
    coordinates: [  0.642528394070312,  0.747533523466500,  0.971708453627625 ]
    mass: 12.010700
  - symbol: C  # 104
    coordinates: [  0.357471605929688,  0.252466476533500,  0.028291546372375 ]
    mass: 12.010700
  - symbol: C  # 105
    coordinates: [  0.191644274901971,  0.749428424447110,  0.059090029385917 ]
    mass: 12.010700
  - symbol: C  # 106
    coordinates: [  0.808355725098028,  0.250571575552890,  0.940909970614083 ]
    mass: 12.010700
  - symbol: C  # 107
    coordinates: [  0.808355725098028,  0.750571575552890,  0.559090029385917 ]
    mass: 12.010700
  - symbol: C  # 108
    coordinates: [  0.191644274901971,  0.249428424447109,  0.440909970614083 ]
    mass: 12.010700
  - symbol: C  # 109
    coordinates: [  0.808355725098028,  0.249428424447109,  0.440909970614083 ]
    mass: 12.010700
  - symbol: C  # 110
    coordinates: [  0.191644274901971,  0.750571575552890,  0.559090029385917 ]
    mass: 12.010700
  - symbol: C  # 111
    coordinates: [  0.191644274901971,  0.250571575552890,  0.940909970614083 ]
    mass: 12.010700
  - symbol: C  # 112
    coordinates: [  0.808355725098028,  0.749428424447110,  0.059090029385917 ]
    mass: 12.010700
  - symbol: C  # 113
    coordinates: [  0.691644274901972,  0.249428424447109,  0.059090029385917 ]
    mass: 12.010700
  - symbol: C  # 114
    coordinates: [  0.308355725098028,  0.750571575552890,  0.940909970614083 ]
    mass: 12.010700
  - symbol: C  # 115
    coordinates: [  0.308355725098029,  0.250571575552890,  0.559090029385917 ]
    mass: 12.010700
  - symbol: C  # 116
    coordinates: [  0.691644274901972,  0.749428424447110,  0.440909970614083 ]
    mass: 12.010700
  - symbol: C  # 117
    coordinates: [  0.308355725098028,  0.749428424447110,  0.440909970614083 ]
    mass: 12.010700
  - symbol: C  # 118
    coordinates: [  0.691644274901972,  0.250571575552890,  0.559090029385917 ]
    mass: 12.010700
  - symbol: C  # 119
    coordinates: [  0.691644274901972,  0.750571575552890,  0.940909970614083 ]
    mass: 12.010700
  - symbol: C  # 120
    coordinates: [  0.308355725098028,  0.249428424447109,  0.059090029385917 ]
    mass: 12.010700
  - symbol: C  # 121
    coordinates: [  0.206629024558706,  0.861248444212885,  0.133969133711133 ]
    mass: 12.010700
  - symbol: C  # 122
    coordinates: [  0.793370975441294,  0.138751555787115,  0.866030866288875 ]
    mass: 12.010700
  - symbol: C  # 123
    coordinates: [  0.793370975441294,  0.638751555787115,  0.633969133711125 ]
    mass: 12.010700
  - symbol: C  # 124
    coordinates: [  0.206629024558706,  0.361248444212885,  0.366030866288874 ]
    mass: 12.010700
  - symbol: C  # 125
    coordinates: [  0.793370975441294,  0.361248444212885,  0.366030866288874 ]
    mass: 12.010700
  - symbol: C  # 126
    coordinates: [  0.206629024558706,  0.638751555787115,  0.633969133711125 ]
    mass: 12.010700
  - symbol: C  # 127
    coordinates: [  0.206629024558706,  0.138751555787115,  0.866030866288875 ]
    mass: 12.010700
  - symbol: C  # 128
    coordinates: [  0.793370975441294,  0.861248444212885,  0.133969133711133 ]
    mass: 12.010700
  - symbol: C  # 129
    coordinates: [  0.706629024558706,  0.361248444212885,  0.133969133711133 ]
    mass: 12.010700
  - symbol: C  # 130
    coordinates: [  0.293370975441294,  0.638751555787115,  0.866030866288875 ]
    mass: 12.010700
  - symbol: C  # 131
    coordinates: [  0.293370975441294,  0.138751555787115,  0.633969133711125 ]
    mass: 12.010700
  - symbol: C  # 132
    coordinates: [  0.706629024558706,  0.861248444212885,  0.366030866288874 ]
    mass: 12.010700
  - symbol: C  # 133
    coordinates: [  0.293370975441294,  0.861248444212885,  0.366030866288874 ]
    mass: 12.010700
  - symbol: C  # 134
    coordinates: [  0.706629024558706,  0.138751555787115,  0.633969133711125 ]
    mass: 12.010700
  - symbol: C  # 135
    coordinates: [  0.706629024558706,  0.638751555787115,  0.866030866288875 ]
    mass: 12.010700
  - symbol: C  # 136
    coordinates: [  0.293370975441294,  0.361248444212885,  0.133969133711133 ]
    mass: 12.010700
  - symbol: C  # 137
    coordinates: [  0.171803707993694,  0.974991968739301,  0.178407141982812 ]
    mass: 12.010700
  - symbol: C  # 138
    coordinates: [  0.828196292006306,  0.025008031260699,  0.821592858017188 ]
    mass: 12.010700
  - symbol: C  # 139
    coordinates: [  0.828196292006306,  0.525008031260699,  0.678407141982812 ]
    mass: 12.010700
  - symbol: C  # 140
    coordinates: [  0.171803707993694,  0.474991968739301,  0.321592858017188 ]
    mass: 12.010700
  - symbol: C  # 141
    coordinates: [  0.828196292006306,  0.474991968739301,  0.321592858017188 ]
    mass: 12.010700
  - symbol: C  # 142
    coordinates: [  0.171803707993694,  0.525008031260699,  0.678407141982812 ]
    mass: 12.010700
  - symbol: C  # 143
    coordinates: [  0.171803707993694,  0.025008031260699,  0.821592858017188 ]
    mass: 12.010700
  - symbol: C  # 144
    coordinates: [  0.828196292006306,  0.974991968739301,  0.178407141982812 ]
    mass: 12.010700
  - symbol: C  # 145
    coordinates: [  0.671803707993694,  0.474991968739301,  0.178407141982812 ]
    mass: 12.010700
  - symbol: C  # 146
    coordinates: [  0.328196292006306,  0.525008031260699,  0.821592858017188 ]
    mass: 12.010700
  - symbol: C  # 147
    coordinates: [  0.328196292006306,  0.025008031260699,  0.678407141982812 ]
    mass: 12.010700
  - symbol: C  # 148
    coordinates: [  0.671803707993694,  0.974991968739301,  0.321592858017188 ]
    mass: 12.010700
  - symbol: C  # 149
    coordinates: [  0.328196292006306,  0.974991968739301,  0.321592858017188 ]
    mass: 12.010700
  - symbol: C  # 150
    coordinates: [  0.671803707993694,  0.025008031260699,  0.678407141982812 ]
    mass: 12.010700
  - symbol: C  # 151
    coordinates: [  0.671803707993694,  0.525008031260699,  0.821592858017188 ]
    mass: 12.010700
  - symbol: C  # 152
    coordinates: [  0.328196292006306,  0.474991968739301,  0.178407141982812 ]
    mass: 12.010700
  - symbol: C  # 153
    coordinates: [  0.122509711202633,  0.975895928621400,  0.147990909435326 ]
    mass: 12.010700
  - symbol: C  # 154
    coordinates: [  0.877490288797367,  0.024104071378600,  0.852009090564673 ]
    mass: 12.010700
  - symbol: C  # 155
    coordinates: [  0.877490288797367,  0.524104071378600,  0.647990909435327 ]
    mass: 12.010700
  - symbol: C  # 156
    coordinates: [  0.122509711202633,  0.475895928621400,  0.352009090564673 ]
    mass: 12.010700
  - symbol: C  # 157
    coordinates: [  0.877490288797367,  0.475895928621400,  0.352009090564673 ]
    mass: 12.010700
  - symbol: C  # 158
    coordinates: [  0.122509711202633,  0.524104071378600,  0.647990909435327 ]
    mass: 12.010700
  - symbol: C  # 159
    coordinates: [  0.122509711202633,  0.024104071378600,  0.852009090564673 ]
    mass: 12.010700
  - symbol: C  # 160
    coordinates: [  0.877490288797367,  0.975895928621400,  0.147990909435326 ]
    mass: 12.010700
  - symbol: C  # 161
    coordinates: [  0.622509711202633,  0.475895928621400,  0.147990909435326 ]
    mass: 12.010700
  - symbol: C  # 162
    coordinates: [  0.377490288797367,  0.524104071378600,  0.852009090564673 ]
    mass: 12.010700
  - symbol: C  # 163
    coordinates: [  0.377490288797367,  0.024104071378600,  0.647990909435327 ]
    mass: 12.010700
  - symbol: C  # 164
    coordinates: [  0.622509711202633,  0.975895928621400,  0.352009090564673 ]
    mass: 12.010700
  - symbol: C  # 165
    coordinates: [  0.377490288797367,  0.975895928621400,  0.352009090564673 ]
    mass: 12.010700
  - symbol: C  # 166
    coordinates: [  0.622509711202633,  0.024104071378600,  0.647990909435327 ]
    mass: 12.010700
  - symbol: C  # 167
    coordinates: [  0.622509711202633,  0.524104071378600,  0.852009090564673 ]
    mass: 12.010700
  - symbol: C  # 168
    coordinates: [  0.377490288797367,  0.475895928621400,  0.147990909435326 ]
    mass: 12.010700
  - symbol: H  # 169
    coordinates: [  0.092194477109831,  0.554794940023266,  0.135391638336669 ]
    mass: 1.007940
  - symbol: H  # 170
    coordinates: [  0.907805522890169,  0.445205059976734,  0.864608361663331 ]
    mass: 1.007940
  - symbol: H  # 171
    coordinates: [  0.907805522890169,  0.945205059976734,  0.635391638336669 ]
    mass: 1.007940
  - symbol: H  # 172
    coordinates: [  0.092194477109831,  0.054794940023266,  0.364608361663331 ]
    mass: 1.007940
  - symbol: H  # 173
    coordinates: [  0.907805522890169,  0.054794940023266,  0.364608361663331 ]
    mass: 1.007940
  - symbol: H  # 174
    coordinates: [  0.092194477109831,  0.945205059976734,  0.635391638336669 ]
    mass: 1.007940
  - symbol: H  # 175
    coordinates: [  0.092194477109831,  0.445205059976734,  0.864608361663331 ]
    mass: 1.007940
  - symbol: H  # 176
    coordinates: [  0.907805522890169,  0.554794940023266,  0.135391638336669 ]
    mass: 1.007940
  - symbol: H  # 177
    coordinates: [  0.592194477109831,  0.054794940023266,  0.135391638336669 ]
    mass: 1.007940
  - symbol: H  # 178
    coordinates: [  0.407805522890169,  0.945205059976734,  0.864608361663331 ]
    mass: 1.007940
  - symbol: H  # 179
    coordinates: [  0.407805522890169,  0.445205059976734,  0.635391638336669 ]
    mass: 1.007940
  - symbol: H  # 180
    coordinates: [  0.592194477109831,  0.554794940023266,  0.364608361663331 ]
    mass: 1.007940
  - symbol: H  # 181
    coordinates: [  0.407805522890169,  0.554794940023266,  0.364608361663331 ]
    mass: 1.007940
  - symbol: H  # 182
    coordinates: [  0.592194477109831,  0.445205059976734,  0.635391638336669 ]
    mass: 1.007940
  - symbol: H  # 183
    coordinates: [  0.592194477109831,  0.945205059976734,  0.864608361663331 ]
    mass: 1.007940
  - symbol: H  # 184
    coordinates: [  0.407805522890169,  0.054794940023266,  0.135391638336669 ]
    mass: 1.007940
  - symbol: H  # 185
    coordinates: [  0.046241156806478,  0.300590936496604,  0.209332206620564 ]
    mass: 1.007940
  - symbol: H  # 186
    coordinates: [  0.953758843193522,  0.699409063503396,  0.790667793379436 ]
    mass: 1.007940
  - symbol: H  # 187
    coordinates: [  0.953758843193522,  0.199409063503396,  0.709332206620564 ]
    mass: 1.007940
  - symbol: H  # 188
    coordinates: [  0.046241156806478,  0.800590936496604,  0.290667793379437 ]
    mass: 1.007940
  - symbol: H  # 189
    coordinates: [  0.953758843193522,  0.800590936496604,  0.290667793379437 ]
    mass: 1.007940
  - symbol: H  # 190
    coordinates: [  0.046241156806478,  0.199409063503396,  0.709332206620564 ]
    mass: 1.007940
  - symbol: H  # 191
    coordinates: [  0.046241156806478,  0.699409063503396,  0.790667793379436 ]
    mass: 1.007940
  - symbol: H  # 192
    coordinates: [  0.953758843193522,  0.300590936496604,  0.209332206620564 ]
    mass: 1.007940
  - symbol: H  # 193
    coordinates: [  0.546241156806478,  0.800590936496604,  0.209332206620564 ]
    mass: 1.007940
  - symbol: H  # 194
    coordinates: [  0.453758843193522,  0.199409063503396,  0.790667793379436 ]
    mass: 1.007940
  - symbol: H  # 195
    coordinates: [  0.453758843193522,  0.699409063503396,  0.709332206620564 ]
    mass: 1.007940
  - symbol: H  # 196
    coordinates: [  0.546241156806478,  0.300590936496604,  0.290667793379437 ]
    mass: 1.007940
  - symbol: H  # 197
    coordinates: [  0.453758843193522,  0.300590936496604,  0.290667793379437 ]
    mass: 1.007940
  - symbol: H  # 198
    coordinates: [  0.546241156806478,  0.699409063503396,  0.709332206620564 ]
    mass: 1.007940
  - symbol: H  # 199
    coordinates: [  0.546241156806478,  0.199409063503396,  0.790667793379436 ]
    mass: 1.007940
  - symbol: H  # 200
    coordinates: [  0.453758843193522,  0.800590936496604,  0.209332206620564 ]
    mass: 1.007940
  - symbol: H  # 201
    coordinates: [  0.131240196506738,  0.666084831696501,  0.969509054188339 ]
    mass: 1.007940
  - symbol: H  # 202
    coordinates: [  0.868759803493262,  0.333915168303499,  0.030490945811661 ]
    mass: 1.007940
  - symbol: H  # 203
    coordinates: [  0.868759803493262,  0.833915168303499,  0.469509054188339 ]
    mass: 1.007940
  - symbol: H  # 204
    coordinates: [  0.131240196506738,  0.166084831696501,  0.530490945811661 ]
    mass: 1.007940
  - symbol: H  # 205
    coordinates: [  0.868759803493262,  0.166084831696501,  0.530490945811661 ]
    mass: 1.007940
  - symbol: H  # 206
    coordinates: [  0.131240196506738,  0.833915168303499,  0.469509054188339 ]
    mass: 1.007940
  - symbol: H  # 207
    coordinates: [  0.131240196506738,  0.333915168303499,  0.030490945811661 ]
    mass: 1.007940
  - symbol: H  # 208
    coordinates: [  0.868759803493262,  0.666084831696501,  0.969509054188339 ]
    mass: 1.007940
  - symbol: H  # 209
    coordinates: [  0.631240196506738,  0.166084831696501,  0.969509054188339 ]
    mass: 1.007940
  - symbol: H  # 210
    coordinates: [  0.368759803493262,  0.833915168303499,  0.030490945811661 ]
    mass: 1.007940
  - symbol: H  # 211
    coordinates: [  0.368759803493262,  0.333915168303499,  0.469509054188339 ]
    mass: 1.007940
  - symbol: H  # 212
    coordinates: [  0.631240196506738,  0.666084831696501,  0.530490945811661 ]
    mass: 1.007940
  - symbol: H  # 213
    coordinates: [  0.368759803493262,  0.666084831696501,  0.530490945811661 ]
    mass: 1.007940
  - symbol: H  # 214
    coordinates: [  0.631240196506738,  0.333915168303499,  0.469509054188339 ]
    mass: 1.007940
  - symbol: H  # 215
    coordinates: [  0.631240196506738,  0.833915168303499,  0.030490945811661 ]
    mass: 1.007940
  - symbol: H  # 216
    coordinates: [  0.368759803493262,  0.166084831696501,  0.969509054188339 ]
    mass: 1.007940
  - symbol: H  # 217
    coordinates: [  0.218336296452924,  0.659177140179190,  0.024592865381733 ]
    mass: 1.007940
  - symbol: H  # 218
    coordinates: [  0.781663703547077,  0.340822859820810,  0.975407134618267 ]
    mass: 1.007940
  - symbol: H  # 219
    coordinates: [  0.781663703547077,  0.840822859820810,  0.524592865381733 ]
    mass: 1.007940
  - symbol: H  # 220
    coordinates: [  0.218336296452924,  0.159177140179190,  0.475407134618267 ]
    mass: 1.007940
  - symbol: H  # 221
    coordinates: [  0.781663703547077,  0.159177140179190,  0.475407134618267 ]
    mass: 1.007940
  - symbol: H  # 222
    coordinates: [  0.218336296452924,  0.840822859820810,  0.524592865381733 ]
    mass: 1.007940
  - symbol: H  # 223
    coordinates: [  0.218336296452924,  0.340822859820810,  0.975407134618267 ]
    mass: 1.007940
  - symbol: H  # 224
    coordinates: [  0.781663703547077,  0.659177140179190,  0.024592865381733 ]
    mass: 1.007940
  - symbol: H  # 225
    coordinates: [  0.718336296452923,  0.159177140179190,  0.024592865381733 ]
    mass: 1.007940
  - symbol: H  # 226
    coordinates: [  0.281663703547076,  0.840822859820810,  0.975407134618267 ]
    mass: 1.007940
  - symbol: H  # 227
    coordinates: [  0.281663703547076,  0.340822859820810,  0.524592865381733 ]
    mass: 1.007940
  - symbol: H  # 228
    coordinates: [  0.718336296452923,  0.659177140179190,  0.475407134618267 ]
    mass: 1.007940
  - symbol: H  # 229
    coordinates: [  0.281663703547076,  0.659177140179190,  0.475407134618267 ]
    mass: 1.007940
  - symbol: H  # 230
    coordinates: [  0.718336296452923,  0.340822859820810,  0.524592865381733 ]
    mass: 1.007940
  - symbol: H  # 231
    coordinates: [  0.718336296452923,  0.840822859820810,  0.975407134618267 ]
    mass: 1.007940
  - symbol: H  # 232
    coordinates: [  0.281663703547076,  0.159177140179190,  0.024592865381733 ]
    mass: 1.007940
  - symbol: H  # 233
    coordinates: [  0.245169620641661,  0.859098610402216,  0.157243388601455 ]
    mass: 1.007940
  - symbol: H  # 234
    coordinates: [  0.754830379358339,  0.140901389597784,  0.842756611398545 ]
    mass: 1.007940
  - symbol: H  # 235
    coordinates: [  0.754830379358339,  0.640901389597784,  0.657243388601455 ]
    mass: 1.007940
  - symbol: H  # 236
    coordinates: [  0.245169620641661,  0.359098610402216,  0.342756611398545 ]
    mass: 1.007940
  - symbol: H  # 237
    coordinates: [  0.754830379358339,  0.359098610402216,  0.342756611398545 ]
    mass: 1.007940
  - symbol: H  # 238
    coordinates: [  0.245169620641661,  0.640901389597784,  0.657243388601455 ]
    mass: 1.007940
  - symbol: H  # 239
    coordinates: [  0.245169620641661,  0.140901389597784,  0.842756611398545 ]
    mass: 1.007940
  - symbol: H  # 240
    coordinates: [  0.754830379358339,  0.859098610402216,  0.157243388601455 ]
    mass: 1.007940
  - symbol: H  # 241
    coordinates: [  0.745169620641661,  0.359098610402216,  0.157243388601455 ]
    mass: 1.007940
  - symbol: H  # 242
    coordinates: [  0.254830379358339,  0.640901389597784,  0.842756611398545 ]
    mass: 1.007940
  - symbol: H  # 243
    coordinates: [  0.254830379358339,  0.140901389597784,  0.657243388601455 ]
    mass: 1.007940
  - symbol: H  # 244
    coordinates: [  0.745169620641661,  0.859098610402216,  0.342756611398545 ]
    mass: 1.007940
  - symbol: H  # 245