512  
4    

1    
  0.0045801749589136   0.0058194991442319   0.0067197787951707
  -0.0006216763   -0.0034061126   -0.0055011582
   0.0000001397    0.0013825809    0.0000045850
   0.0000003719    0.0013518338    0.0000163859
  -0.0000000008    0.0013727530    0.0000131224
  -0.0000000209    0.0013680211    0.0000020608
  -0.0000000087    0.0013713272    0.0000006982
   0.0000003548    0.0013667644    0.0000033762
   0.0000000001    0.0013826342    0.0000045319
  -0.0000095247    0.0017647562    0.0002398426
  -0.0000002319    0.0013656154    0.0000057920
  -0.0000002241    0.0013720371   -0.0000010001
  -0.0000000045    0.0013685431    0.0000003019
   0.0000000251    0.0013796005    0.0000022500
   0.0000000017    0.0013832392    0.0000071702
   0.0000026626    0.0013694136    0.0000386708
  -0.0000000080    0.0013802038    0.0000103918
   0.0000047859   -0.0013800212   -0.0000011790
  -0.0000000197   -0.0013791329    0.0000001147
  -0.0000000407   -0.0013789635   -0.0000002190
  -0.0000000246   -0.0013789584   -0.0000000511
   0.0000000247   -0.0013789546   -0.0000000220
   0.0000000062   -0.0013789846   -0.0000000063
   0.0000000193   -0.0013788683   -0.0000000929
   0.0000000126   -0.0013789798   -0.0000000416
  -0.0000000885   -0.0013789153    0.0000006037
  -0.0000000461   -0.0013789146    0.0000000226
   0.0000000113   -0.0013789428   -0.0000000528
   0.0000000087   -0.0013789931   -0.0000000216
  -0.0000000004   -0.0013789145   -0.0000000472
   0.0000000040   -0.0013789256   -0.0000000501
   0.0000000528   -0.0013790223    0.0000000594
   0.0000000305   -0.0013790133    0.0000000208
   0.0002402717   -0.0010667670    0.0014415640
  -0.0000003880   -0.0014107028   -0.0000006179
   0.0000007783   -0.0014029353   -0.0000144452
   0.0000000045   -0.0014051476   -0.0000113986
   0.0000001900   -0.0014137653   -0.0000097282
   0.0000000144   -0.0014143283   -0.0000066281
  -0.0000258810   -0.0014654159   -0.0000422239
   0.0000000242   -0.0014104386   -0.0000011072
   0.0000165005   -0.0014182509   -0.0001404721
  -0.0000000914   -0.0014077347   -0.0000082067
  -0.0000001350   -0.0014143494   -0.0000046143
  -0.0000000153   -0.0014145267   -0.0000078274
  -0.0000001351   -0.0014093297   -0.0000002318
  -0.0000000151   -0.0014075210   -0.0000017280
   0.0000164623   -0.0011786363    0.0000680284
  -0.0000000916   -0.0014103017   -0.0000102565
   0.0000051396    0.0014134253    0.0000020728
   0.0000000087    0.0014123186    0.0000000122
  -0.0000000072    0.0014123879    0.0000000171
   0.0000000003    0.0014124076    0.0000000384
  -0.0000000034    0.0014123563    0.0000000357
  -0.0000000007    0.0014123799    0.0000000150
  -0.0000000204    0.0014121970    0.0000004749
  -0.0000000119    0.0014124289    0.0000000246
  -0.0000001243    0.0014124045    0.0000001865
   0.0000000190    0.0014123213   -0.0000000306
  -0.0000000009    0.0014123631    0.0000000307
  -0.0000000011    0.0014123498    0.0000000647
   0.0000000007    0.0014124044    0.0000000175
  -0.0000000007    0.0014124397   -0.0000000100
   0.0000000958    0.0014126376   -0.0000004401
  -0.0000000014    0.0014123945   -0.0000000161
  -0.0000000254    0.0013789777    0.0000000430
   0.0000000001    0.0013789376   -0.0000000067
  -0.0000000028    0.0013789318   -0.0000000080
  -0.0000000000    0.0013789398    0.0000000006
   0.0000000000    0.0013789395   -0.0000000002
   0.0000000000    0.0013789384    0.0000000022
  -0.0000000028    0.0013789536   -0.0000000241
  -0.0000000000    0.0013789374    0.0000000050
  -0.0000000130    0.0013789333   -0.0000000016
  -0.0000000007    0.0013789445   -0.0000000050
  -0.0000000007    0.0013789372    0.0000000021
  -0.0000000001    0.0013789355    0.0000000001
  -0.0000000001    0.0013789397    0.0000000008
   0.0000000000    0.0013789393    0.0000000036
  -0.0000000040    0.0013789359   -0.0000000081
  -0.0000000002    0.0013789333    0.0000000033
   0.0000048349   -0.0013800517   -0.0000011646
   0.0000000019   -0.0013791156    0.0000001145
   0.0000000313   -0.0013789540   -0.0000001779
   0.0000000208   -0.0013789520   -0.0000000256
  -0.0000000260   -0.0013789946   -0.0000000220
  -0.0000000049   -0.0013789934   -0.0000000064
  -0.0000000286   -0.0013788591   -0.0000001336
  -0.0000000164   -0.0013789734   -0.0000000670
   0.0000001775   -0.0013786074    0.0000005165
   0.0000000371   -0.0013789234    0.0000000872
  -0.0000000156   -0.0013790008   -0.0000000209
  -0.0000000077   -0.0013790031   -0.0000000242
  -0.0000000008   -0.0013789229   -0.0000000403
  -0.0000000065   -0.0013789275   -0.0000000557
  -0.0000001351   -0.0013789653   -0.0000001185
  -0.0000000423   -0.0013790456   -0.0000000009
  -0.0000000212   -0.0014123875    0.0000000054
  -0.0000000005   -0.0014123768    0.0000000031
  -0.0000000011   -0.0014123732    0.0000000035
  -0.0000000002   -0.0014123730   -0.0000000036
  -0.0000000003   -0.0014123782    0.0000000026
  -0.0000000001   -0.0014123757    0.0000000002
  -0.0000000065   -0.0014123763   -0.0000000177
  -0.0000000004   -0.0014123757   -0.0000000009
  -0.0000000111   -0.0014123777   -0.0000000285
  -0.0000000006   -0.0014123731    0.0000000018
  -0.0000000005   -0.0014123743    0.0000000012
  -0.0000000002   -0.0014123724   -0.0000000033
  -0.0000000005   -0.0014123732    0.0000000041
  -0.0000000002   -0.0014123726   -0.0000000010
  -0.0000000111   -0.0014123265    0.0000000182
  -0.0000000006   -0.0014123756    0.0000000003
   0.0000006981    0.0014117111   -0.0000009032
  -0.0000000097    0.0014123169    0.0000000103
  -0.0000000024    0.0014124214    0.0000000082
   0.0000000010    0.0014124027    0.0000000152
   0.0000000030    0.0014123591    0.0000000628
   0.0000000009    0.0014123784    0.0000000246
  -0.0000000282    0.0014121589    0.0000004211
   0.0000000157    0.0014124548    0.0000000269
   0.0000000924    0.0014124742    0.0000001058
  -0.0000000246    0.0014123042   -0.0000000674
  -0.0000000003    0.0014123739    0.0000000431
   0.0000000020    0.0014123680    0.0000000725
  -0.0000000019    0.0014124152    0.0000000050
   0.0000000016    0.0014124577   -0.0000000179
  -0.0000001275    0.0014127069   -0.0000003591
  -0.0000000042    0.0014123776    0.0000000207
   0.0000025779    0.0014187734    0.0000111654
   0.0000025685    0.0014187747    0.0000110863
  -0.0000002062    0.0013774898    0.0000273664
  -0.0000002025    0.0013598167    0.0000120325
  -0.0000000197    0.0013681179    0.0000015951
  -0.0000000197    0.0013681222    0.0000015903
  -0.0000002022    0.0013821918   -0.0000074115
  -0.0000002032    0.0013997967    0.0000079354
  -0.0000002340    0.0013780117    0.0000165724
  -0.0000085694    0.0012347687   -0.0002189475
  -0.0000000044    0.0013720620    0.0000033598
  -0.0000002228    0.0013720922   -0.0000009573
   0.0000000017    0.0013807787    0.0000050201
   0.0000000249    0.0013798682    0.0000024840
  -0.0000000068    0.0013766683    0.0000073260
   0.0000026772    0.0014017984    0.0000666263
  -0.0000002195   -0.0013789966    0.0000001701
   0.0000000825   -0.0013791697    0.0000000731
  -0.0000000540   -0.0013790299   -0.0000000267
  -0.0000000451   -0.0013789562   -0.0000000944
   0.0000000271   -0.0013789469    0.0000000190
   0.0000000166   -0.0013789946   -0.0000000126
  -0.0000000110   -0.0013790459   -0.0000000098
   0.0000000430   -0.0013789994   -0.0000000690
  -0.0000000473   -0.0013790124    0.0000000238
  -0.0000001823   -0.0013785316   -0.0000004183
   0.0000000073   -0.0013789922   -0.0000000226
   0.0000000142   -0.0013789724   -0.0000000725
   0.0000000026   -0.0013789328   -0.0000000314
  -0.0000000013   -0.0013789151   -0.0000000424
   0.0000000201   -0.0013789594    0.0000000840
   0.0000002033   -0.0013787741    0.0000003042
  -0.0000259441   -0.0014324769    0.0000515869
  -0.0000003024   -0.0013996712    0.0000178017
   0.0000001065   -0.0014033436   -0.0000195966
  -0.0000004195   -0.0014018270   -0.0000151314
   0.0000000078   -0.0014134941   -0.0000091923
   0.0000001086   -0.0014169222   -0.0000112756
  -0.0000004360   -0.0014013461    0.0000174355
   0.0000009808   -0.0014140489   -0.0000002638
   0.0000013584   -0.0014101123   -0.0000107208
  -0.0000265600   -0.0013501644   -0.0000496686
  -0.0000000175   -0.0014170914   -0.0000098226
  -0.0000003818   -0.0014140261   -0.0000043733
  -0.0000000174   -0.0014043246    0.0000013250
  -0.0000003820   -0.0014089771    0.0000000357
   0.0000013511   -0.0013990869   -0.0000009155
  -0.0000266275   -0.0014066875   -0.0000981299
  -0.0000000317    0.0014123396    0.0000001661
   0.0000000862    0.0014120394    0.0000000360
  -0.0000000010    0.0014123973    0.0000000239
   0.0000000000    0.0014124434    0.0000000990
   0.0000000002    0.0014123754   -0.0000000422
  -0.0000000033    0.0014123507    0.0000000526
  -0.0000000134    0.0014124217   -0.0000000185
   0.0000000190    0.0014125316   -0.0000000764
  -0.0000000050    0.0014123663   -0.0000000368
  -0.0000001118    0.0014124327    0.0000001980
  -0.0000000002    0.0014123611    0.0000000433
  -0.0000000025    0.0014123708    0.0000000524
  -0.0000000058    0.0014124163   -0.0000000128
  -0.0000000005    0.0014123750    0.0000000186
   0.0000000079    0.0014123791   -0.0000000690
   0.0000000656    0.0014125531    0.0000003128
  -0.0000000040    0.0013789267   -0.0000000071
  -0.0000000039    0.0013789264   -0.0000000066
  -0.0000000007    0.0013789392    0.0000000021
  -0.0000000007    0.0013789364   -0.0000000002
   0.0000000000    0.0013789372    0.0000000011
   0.0000000000    0.0013789369    0.0000000008
  -0.0000000007    0.0013789340    0.0000000053
  -0.0000000007    0.0013789362    0.0000000074
  -0.0000000007    0.0013789421   -0.0000000095
  -0.0000000130    0.0013789572    0.0000000180
  -0.0000000001    0.0013789370    0.0000000006
  -0.0000000007    0.0013789310   -0.0000000038
   0.0000000000    0.0013789398    0.0000000036
  -0.0000000001    0.0013789413    0.0000000017
  -0.0000000002    0.0013789378    0.0000000055
  -0.0000000040    0.0013789281   -0.0000000158
   0.0000001166   -0.0013787313    0.0000001699
  -0.0000001695   -0.0013793675    0.0000000728
   0.0000000461   -0.0013789847    0.0000000025
   0.0000000360   -0.0013789620   -0.0000000338
  -0.0000000270   -0.0013789896    0.0000000190
  -0.0000000165   -0.0013790206   -0.0000000125
   0.0000000032   -0.0013790010   -0.0000000392
  -0.0000000520   -0.0013790051   -0.0000001289
   0.0000000364   -0.0013789599    0.0000000356
   0.0000002678   -0.0013785941   -0.0000000553
  -0.0000000061   -0.0013790067   -0.0000000192
  -0.0000000194   -0.0013790243   -0.0000000504
  -0.0000000047   -0.0013789348   -0.0000000348
   0.0000000002   -0.0013789197   -0.0000000374
  -0.0000000313   -0.0013789641    0.0000000529
  -0.0000003049   -0.0013789202    0.0000000839
  -0.0000000067   -0.0014123952   -0.0000000151
  -0.0000000026   -0.0014123713    0.0000000121
  -0.0000000006   -0.0014123725   -0.0000000007
  -0.0000000005   -0.0014123712   -0.0000000042
  -0.0000000002   -0.0014123758    0.0000000016
  -0.0000000002   -0.0014123766   -0.0000000008
  -0.0000000026   -0.0014123633    0.0000000087
  -0.0000000013   -0.0014123708   -0.0000000071
  -0.0000000012   -0.0014123739    0.0000000041
  -0.0000000068   -0.0014123819   -0.0000000009
  -0.0000000002   -0.0014123778   -0.0000000031
  -0.0000000003   -0.0014123762    0.0000000009
  -0.0000000002   -0.0014123740    0.0000000018
  -0.0000000003   -0.0014123783    0.0000000007
  -0.0000000012   -0.0014123833   -0.0000000034
  -0.0000000068   -0.0014123966   -0.0000000127
   0.0000000111    0.0014123155    0.0000000947
  -0.0000001302    0.0014120455    0.0000001249
   0.0000000071    0.0014123985   -0.0000000265
  -0.0000000071    0.0014124591    0.0000000546
   0.0000000015    0.0014123740   -0.0000000090
   0.0000000025    0.0014123483    0.0000000744
   0.0000000113    0.0014124350   -0.0000000213
  -0.0000000324    0.0014126113   -0.0000000969
   0.0000000069    0.0014123700   -0.0000000711
  -0.0000000862    0.0014124514    0.0000001106
   0.0000000023    0.0014123684    0.0000000480
   0.0000000021    0.0014123805    0.0000000667
   0.0000000079    0.0014124236   -0.0000000175
   0.0000000001    0.0014123847    0.0000000042
  -0.0000000060    0.0014123830   -0.0000000346
  -0.0000002639    0.0014125717    0.0000003985
  -0.0000096605    0.0012463255    0.0003051366
   0.0000000439    0.0013746651    0.0000024833
  -0.0000000875    0.0013810902    0.0000086150
   0.0000000167    0.0013813118    0.0000050325
  -0.0000000911    0.0013753103    0.0000136402
   0.0000000166    0.0013738527    0.0000115156
  -0.0000087693    0.0011019759    0.0004283435
   0.0000000433    0.0013763768    0.0000010012
   0.0000026938    0.0014141146    0.0000561114
  -0.0000000074    0.0013818187    0.0000028484
   0.0000000244    0.0013706783    0.0000104740
   0.0000000015    0.0013704587    0.0000139861
  -0.0000002211    0.0013546194    0.0000142180
  -0.0000000047    0.0013746012    0.0000011557
  -0.0000087932    0.0013870946   -0.0003521149
  -0.0000002317    0.0013957111    0.0000011555
   0.0000000781   -0.0013786377    0.0000003650
   0.0000000070   -0.0013789723   -0.0000000482
  -0.0000000197   -0.0013789093   -0.0000000746
  -0.0000000048   -0.0013789257   -0.0000000149
   0.0000000288   -0.0013789340   -0.0000000608
   0.0000000149   -0.0013789847   -0.0000000508
   0.0000003456   -0.0013791312    0.0000001267
   0.0000000029   -0.0013789230   -0.0000000060
  -0.0000002074   -0.0013791500   -0.0000002311
  -0.0000000010   -0.0013789557    0.0000000471
   0.0000000097   -0.0013789565   -0.0000000781
  -0.0000000044   -0.0013789764   -0.0000001010
   0.0000000579   -0.0013789230   -0.0000000010
   0.0000000049   -0.0013789639    0.0000000040
  -0.0000002153   -0.0013795485   -0.0000000277
   0.0000000483   -0.0013791282   -0.0000000984
  -0.0000258754   -0.0013770835    0.0000346172
   0.0000000225   -0.0014174523   -0.0000072864
   0.0000001888   -0.0014034618   -0.0000007845
   0.0000000144   -0.0014063289    0.0000002666
   0.0000007742   -0.0013910254   -0.0000040725
   0.0000000043   -0.0014045968   -0.0000107974
   0.0002469471    0.0003329839    0.0026260577
  -0.0000003881   -0.0014160026   -0.0000051051
  -0.0000000903   -0.0013876388   -0.0000145502
   0.0000001378   -0.0014056996    0.0000023653
  -0.0000000068   -0.0014016183   -0.0000089446
  -0.0000000379   -0.0014047458   -0.0000144643
  -0.0000000855   -0.0014049014   -0.0000295750
   0.0000001377   -0.0014165660   -0.0000069530
   0.0002408582    0.0007332104    0.0007908640
   0.0000001911   -0.0014161094    0.0000042637
  -0.0000000764    0.0014125290    0.0000000659
  -0.0000000090    0.0014123796    0.0000000500
   0.0000000009    0.0014124038    0.0000000235
   0.0000000024    0.0014124011   -0.0000000202
  -0.0000000040    0.0014123612    0.0000000635
   0.0000000031    0.0014124179    0.0000000429
   0.0000022795    0.0014125576   -0.0000018171
  -0.0000000539    0.0014125877   -0.0000001197
   0.0000000101    0.0014124157    0.0000000052
   0.0000000097    0.0014123548   -0.0000000253
  -0.0000000008    0.0014124014    0.0000000630
   0.0000000018    0.0014124290    0.0000000865
   0.0000000341    0.0014125293   -0.0000001181
  -0.0000000146    0.0014124458   -0.0000000533
  -0.0000002798    0.0014127132    0.0000000805
  -0.0000000606    0.0014125279    0.0000001164
  -0.0000000131    0.0013789485   -0.0000000005
  -0.0000000002    0.0013789382   -0.0000000026
  -0.0000000003    0.0013789398    0.0000000004
   0.0000000001    0.0013789404    0.0000000008
  -0.0000000003    0.0013789421    0.0000000002
   0.0000000001    0.0013789371    0.0000000051
  -0.0000000131    0.0013789639   -0.0000000115
  -0.0000000002    0.0013789378   -0.0000000006
  -0.0000000040    0.0013789273   -0.0000000189
  -0.0000000002    0.0013789417   -0.0000000018
  -0.0000000001    0.0013789380    0.0000000033
   0.0000000000    0.0013789364    0.0000000047
  -0.0000000007    0.0013789369   -0.0000000069
  -0.0000000001    0.0013789370    0.0000000014
  -0.0000000130    0.0013789442    0.0000000294
  -0.0000000007    0.0013789342   -0.0000000029
   0.0000000210   -0.0013788948    0.0000005486
  -0.0000000077   -0.0013789805   -0.0000000510
   0.0000000114   -0.0013789230   -0.0000000414
   0.0000000011   -0.0013789366   -0.0000000013
  -0.0000000371   -0.0013789478   -0.0000000939
  -0.0000000186   -0.0013789956   -0.0000000643
  -0.0000002532   -0.0013793865   -0.0000000619
  -0.0000000036   -0.0013789315   -0.0000000032
   0.0000001247   -0.0013790930   -0.0000000536
  -0.0000000108   -0.0013789881    0.0000000687
  -0.0000000108   -0.0013789647   -0.0000000849
   0.0000000019   -0.0013789781   -0.0000000952
  -0.0000000622   -0.0013789809   -0.0000000328
  -0.0000000039   -0.0013789739    0.0000000066
   0.0000002999   -0.0013792385    0.0000000565
  -0.0000000572   -0.0013791369   -0.0000001628
  -0.0000000066   -0.0014123796   -0.0000000226
  -0.0000000004   -0.0014123744   -0.0000000034
  -0.0000000003   -0.0014123756    0.0000000043
  -0.0000000001   -0.0014123738    0.0000000015
  -0.0000000011   -0.0014123833   -0.0000000029
  -0.0000000002   -0.0014123744   -0.0000000029
  -0.0000000212   -0.0014123600    0.0000000301
  -0.0000000005   -0.0014123789    0.0000000023
  -0.0000000026   -0.0014123690    0.0000000036
  -0.0000000003   -0.0014123731   -0.0000000014
  -0.0000000002   -0.0014123733    0.0000000005
  -0.0000000002   -0.0014123715   -0.0000000028
  -0.0000000026   -0.0014123649    0.0000000103
  -0.0000000003   -0.0014123742   -0.0000000001
  -0.0000000214   -0.0014123521   -0.0000000076
  -0.0000000008   -0.0014123743    0.0000000035
   0.0000000275    0.0014124904    0.0000001200
   0.0000000129    0.0014124056    0.0000000476
  -0.0000000014    0.0014124064   -0.0000000036
  -0.0000000022    0.0014123996   -0.0000000297
  -0.0000000055    0.0014123946    0.0000000723
  -0.0000000018    0.0014124131    0.0000000660
   0.0000034942    0.0014108600    0.0000011422
   0.0000000529    0.0014125859   -0.0000001176
   0.0000000067    0.0014123692   -0.0000000920
  -0.0000000094    0.0014123532   -0.0000000266
  -0.0000000023    0.0014124261    0.0000000629
  -0.0000000022    0.0014124315    0.0000000864
  -0.0000000174    0.0014124828   -0.0000000208
   0.0000000149    0.0014124440   -0.0000000518
   0.0000001035    0.0014126373    0.0000000803
   0.0000000813    0.0014126443    0.0000001162
   0.0000000764    0.0013875422    0.0000044406
   0.0000000492    0.0013600006   -0.0000194692
   0.0000000540    0.0013841498    0.0000094723
   0.0000000533    0.0013809886    0.0000067297
   0.0000000529    0.0013709439    0.0000154602
   0.0000000532    0.0013741032    0.0000181937
   0.0000000528    0.0013622959   -0.0000214680
   0.0000000445    0.0013896631    0.0000024992
  -0.0000000062    0.0013853468    0.0000059253
   0.0000026691    0.0013817184    0.0000279986
   0.0000000014    0.0013729338    0.0000161305
   0.0000000247    0.0013704098    0.0000102413
  -0.0000000047    0.0013710931   -0.0000019071
  -0.0000002220    0.0013545870    0.0000141463
  -0.0000002324    0.0013833558   -0.0000096256
  -0.0000083959    0.0019119546    0.0001050345
  -0.0000000349   -0.0013790853   -0.0000001261
   0.0000000193   -0.0013789849    0.0000000008
  -0.0000000231   -0.0013789301   -0.0000000068
  -0.0000000136   -0.0013789222   -0.0000000540
   0.0000000353   -0.0013789766   -0.0000000060
   0.0000000397   -0.0013789983   -0.0000000821
   0.0000000120   -0.0013789097    0.0000000594
   0.0000000185   -0.0013790402   -0.0000000448
  -0.0000000253   -0.0013790031    0.0000000131
  -0.0000001197   -0.0013788388    0.0000000242
  -0.0000000023   -0.0013789838   -0.0000000802
   0.0000000059   -0.0013789758   -0.0000000912
   0.0000000123   -0.0013789527    0.0000000175
   0.0000000465   -0.0013789447   -0.0000000239
  -0.0000000299   -0.0013790860   -0.0000000283
   0.0000003457   -0.0013786785   -0.0000001840
  -0.0000004419   -0.0014401917   -0.0000165699
   0.0000009746   -0.0014135214    0.0000000970
   0.0000000078   -0.0014036104   -0.0000006218
   0.0000001084   -0.0014038352    0.0000000363
   0.0000001055   -0.0013896860   -0.0000076092
  -0.0000004212   -0.0014086694   -0.0000209552
  -0.0000258962   -0.0014861141    0.0000054510
  -0.0000003032   -0.0014347698   -0.0000124957
  -0.0000000895   -0.0014101821   -0.0000003937
   0.0000036366   -0.0013915217   -0.0000087170
  -0.0000000022   -0.0014014273   -0.0000127652
  -0.0000000445   -0.0014019226   -0.0000090631
  -0.0000000902   -0.0014147492   -0.0000042328
   0.0000036464   -0.0014379281   -0.0000488481
   0.0000031913   -0.0014431641   -0.0000022473
   0.0000179148   -0.0014909838    0.0001740981
  -0.0000000242    0.0014123585   -0.0000000127
  -0.0000000106    0.0014123362    0.0000000731
   0.0000000018    0.0014123986   -0.0000000286
   0.0000000017    0.0014124218    0.0000000117
   0.0000000131    0.0014124361   -0.0000000375
   0.0000000062    0.0014124122    0.0000000766
  -0.0000000517    0.0014125129   -0.0000001979
  -0.0000001078    0.0014130654   -0.0000000249
   0.0000000050    0.0014123827   -0.0000000146
  -0.0000000181    0.0014125355    0.0000000387
   0.0000000021    0.0014124250    0.0000000672
   0.0000000001    0.0014124125    0.0000000796
  -0.0000000128    0.0014124347   -0.0000000776
   0.0000000043    0.0014122592    0.0000000456
  -0.0000000546    0.0014125507    0.0000000488
   0.0000013206    0.0014111993   -0.0000005514
  -0.0000000028    0.0013789301   -0.0000000181
  -0.0000000028    0.0013789482   -0.0000000020
  -0.0000000000    0.0013789392    0.0000000013
  -0.0000000000    0.0013789366   -0.0000000009
  -0.0000000000    0.0013789360    0.0000000018
  -0.0000000000    0.0013789381    0.0000000036
  -0.0000000028    0.0013789304    0.0000000158
  -0.0000000028    0.0013789116    0.0000000001
  -0.0000000002    0.0013789407   -0.0000000042
  -0.0000000040    0.0013789371   -0.0000000114
   0.0000000000    0.0013789377    0.0000000055
  -0.0000000001    0.0013789374    0.0000000023
  -0.0000000001    0.0013789381    0.0000000015
  -0.0000000007    0.0013789445   -0.0000000010
  -0.0000000007    0.0013789408    0.0000000005
  -0.0000000130    0.0013789229    0.0000000100
   0.0000000274   -0.0013790730   -0.0000000941
  -0.0000000270   -0.0013790208    0.0000000002
   0.0000000160   -0.0013789453    0.0000000332
   0.0000000060   -0.0013789490   -0.0000000172
  -0.0000000424   -0.0013789917   -0.0000000460
  -0.0000000472   -0.0013790248   -0.0000001185
  -0.0000000195   -0.0013788978    0.0000000273
  -0.0000000261   -0.0013790761   -0.0000000440
   0.0000000140   -0.0013790077    0.0000000441
   0.0000000172   -0.0013789857    0.0000002457
   0.0000000002   -0.0013789857   -0.0000000768
  -0.0000000070   -0.0013789803   -0.0000000961
  -0.0000000111   -0.0013789672    0.0000000141
  -0.0000000516   -0.0013789965   -0.0000000459
   0.0000000191   -0.0013790336   -0.0000000401
  -0.0000002626   -0.0013787425   -0.0000005460
  -0.0000000026   -0.0014123711    0.0000000005
  -0.0000000013   -0.0014123718   -0.0000000097
  -0.0000000002   -0.0014123750    0.0000000023
  -0.0000000002   -0.0014123733    0.0000000024
  -0.0000000006   -0.0014123712    0.0000000010
  -0.0000000005   -0.0014123740   -0.0000000062
  -0.0000000067   -0.0014123800    0.0000000004
  -0.0000000026   -0.0014123704    0.0000000123
  -0.0000000005   -0.0014123753   -0.0000000002
  -0.0000000018   -0.0014123747   -0.0000000081
  -0.0000000001   -0.0014123755   -0.0000000016
  -0.0000000001   -0.0014123764    0.0000000001
  -0.0000000005   -0.0014123745    0.0000000024
  -0.0000000018   -0.0014123879   -0.0000000185
  -0.0000000019   -0.0014123901   -0.0000000032
  -0.0000000114   -0.0014123921    0.0000000401
   0.0000000221    0.0014123717   -0.0000000099
  -0.0000000030    0.0014124163    0.0000000933
  -0.0000000001    0.0014123972   -0.0000000619
  -0.0000000026    0.0014124192   -0.0000000102
  -0.0000000069    0.0014124373    0.0000000128
  -0.0000000132    0.0014124280    0.0000001205
   0.0000000312    0.0014124887   -0.0000001263
   0.0000000640    0.0014130708   -0.0000001135
  -0.0000000058    0.0014123745   -0.0000000359
   0.0000000015    0.0014124919   -0.0000000113
   0.0000000024    0.0014124186    0.0000000671
  -0.0000000037    0.0014124327    0.0000000795
   0.0000000119    0.0014124264   -0.0000000562
  -0.0000000207    0.0014122160    0.0000000956
   0.0000000501    0.0014125340    0.0000000488
   0.0000045125    0.0014146964   -0.0000005462

1    
 -0.0045801749589136  -0.0058194991442319  -0.0067197787951707
   0.0006216655    0.0061772176    0.0055932005
  -0.0000001401    0.0013753414   -0.0000046157
  -0.0000003439    0.0014061586   -0.0000163648
  -0.0000000001    0.0013851740   -0.0000132076
   0.0000000212    0.0013898491   -0.0000020980
   0.0000000086    0.0013865539   -0.0000007140
  -0.0000003612    0.0013912291   -0.0000035132
   0.0000000008    0.0013751909   -0.0000045965
   0.0000082528    0.0009975369   -0.0002377658
   0.0000002348    0.0013924309   -0.0000057881
   0.0000002193    0.0013857260    0.0000009177
   0.0000000041    0.0013893412   -0.0000003169
  -0.0000000243    0.0013782335   -0.0000023085
  -0.0000000015    0.0013745617   -0.0000072572
  -0.0000026785    0.0013885168   -0.0000389581
   0.0000000077    0.0013776637   -0.0000104709
  -0.0000048907   -0.0013778722    0.0000011620
   0.0000000199   -0.0013787463   -0.0000001179
   0.0000000403   -0.0013789153    0.0000002167
   0.0000000245   -0.0013789203    0.0000000497
  -0.0000000249   -0.0013789245    0.0000000235
  -0.0000000063   -0.0013788940    0.0000000078
  -0.0000000194   -0.0013790108    0.0000000955
  -0.0000000128   -0.0013788988    0.0000000447
   0.0000000972   -0.0013789593   -0.0000006004
   0.0000000465   -0.0013789658   -0.0000000243
  -0.0000000112   -0.0013789357    0.0000000511
  -0.0000000090   -0.0013788852    0.0000000199
   0.0000000004   -0.0013789647    0.0000000500
  -0.0000000041   -0.0013789532    0.0000000536
  -0.0000000530   -0.0013788584   -0.0000000600
  -0.0000000307   -0.0013788661   -0.0000000199
  -0.0002436519   -0.0017656327   -0.0014373342
   0.0000003901   -0.0014140754    0.0000006467
  -0.0000007646   -0.0014217535    0.0000145432
  -0.0000000038   -0.0014195950    0.0000115056
  -0.0000001892   -0.0014109361    0.0000097987
  -0.0000000144   -0.0014103815    0.0000066775
   0.0000258043   -0.0013586397    0.0000428711
  -0.0000000234   -0.0014143222    0.0000011438
  -0.0000164405   -0.0014052469    0.0001410991
   0.0000000914   -0.0014169959    0.0000082906
   0.0000001350   -0.0014103652    0.0000046348
   0.0000000146   -0.0014101839    0.0000078744
   0.0000001349   -0.0014154085    0.0000002821
   0.0000000148   -0.0014172452    0.0000017701
  -0.0000164783   -0.0016475581   -0.0000683492
   0.0000000912   -0.0014144449    0.0000103555
  -0.0000050548    0.0014113412   -0.0000020460
  -0.0000000090    0.0014124341   -0.0000000137
   0.0000000071    0.0014123630   -0.0000000192
  -0.0000000003    0.0014123429   -0.0000000411
   0.0000000035    0.0014123947   -0.0000000332
   0.0000000008    0.0014123710   -0.0000000122
   0.0000000212    0.0014125539   -0.0000004725
   0.0000000119    0.0014123225   -0.0000000233
   0.0000001242    0.0014123457   -0.0000001890
  -0.0000000191    0.0014124289    0.0000000276
   0.0000000009    0.0014123877   -0.0000000317
   0.0000000012    0.0014124012   -0.0000000657
  -0.0000000007    0.0014123467   -0.0000000150
   0.0000000008    0.0014123103    0.0000000125
  -0.0000000964    0.0014121142    0.0000004430
   0.0000000016    0.0014123568    0.0000000174
   0.0000000254    0.0013789003   -0.0000000443
  -0.0000000001    0.0013789405    0.0000000051
   0.0000000028    0.0013789453    0.0000000054
   0.0000000000    0.0013789377   -0.0000000032
  -0.0000000000    0.0013789375    0.0000000017
  -0.0000000000    0.0013789388   -0.0000000006
   0.0000000028    0.0013789243    0.0000000264
   0.0000000000    0.0013789406   -0.0000000025
   0.0000000130    0.0013789435   -0.0000000006
   0.0000000007    0.0013789323    0.0000000026
   0.0000000007    0.0013789389   -0.0000000038
   0.0000000001    0.0013789405   -0.0000000018
   0.0000000001    0.0013789365    0.0000000016
  -0.0000000001    0.0013789368   -0.0000000011
   0.0000000040    0.0013789411    0.0000000097
   0.0000000002    0.0013789435   -0.0000000015
  -0.0000047292   -0.0013778142    0.0000011764
  -0.0000000022   -0.0013787633   -0.0000001180
  -0.0000000311   -0.0013789245    0.0000001761
  -0.0000000208   -0.0013789267    0.0000000244
   0.0000000262   -0.0013788844    0.0000000235
   0.0000000050   -0.0013788851    0.0000000078
   0.0000000288   -0.0013790202    0.0000001365
   0.0000000165   -0.0013789052    0.0000000701
  -0.0000001772   -0.0013792710   -0.0000005195
  -0.0000000376   -0.0013789571   -0.0000000890
   0.0000000155   -0.0013788778    0.0000000191
   0.0000000080   -0.0013788750    0.0000000226
   0.0000000007   -0.0013789564    0.0000000431
   0.0000000066   -0.0013789515    0.0000000593
   0.0000001355   -0.0013789156    0.0000001175
   0.0000000426   -0.0013788334    0.0000000017
   0.0000000212   -0.0014123645   -0.0000000077
   0.0000000005   -0.0014123747   -0.0000000055
   0.0000000011   -0.0014123780   -0.0000000052
   0.0000000002   -0.0014123779    0.0000000019
   0.0000000002   -0.0014123731   -0.0000000002
   0.0000000001   -0.0014123753    0.0000000023
   0.0000000066   -0.0014123758    0.0000000192
   0.0000000003   -0.0014123760    0.0000000027
   0.0000000111   -0.0014123721    0.0000000257
   0.0000000006   -0.0014123764   -0.0000000046
   0.0000000005   -0.0014123747   -0.0000000019
   0.0000000002   -0.0014123765    0.0000000026
   0.0000000005   -0.0014123763   -0.0000000012