512  
4    

1    
  0.0045801749592508   0.0058194991445740   0.0067197787946446
  -0.0006139344   -0.0025430944   -0.0045540390
   0.0000001376    0.0014145478    0.0000045539
   0.0000003538    0.0013839415    0.0000163008
   0.0000000003    0.0014047763    0.0000130508
  -0.0000000194    0.0014000603    0.0000020559
  -0.0000000086    0.0014033499    0.0000007014
   0.0000003370    0.0013988298    0.0000033172
   0.0000000011    0.0014145986    0.0000045008
  -0.0000089916    0.0017933968    0.0002382456
  -0.0000002277    0.0013976758    0.0000057679
  -0.0000002198    0.0014040668   -0.0000009907
  -0.0000000046    0.0014005818    0.0000003061
   0.0000000247    0.0014115939    0.0000022326
   0.0000000017    0.0014151978    0.0000071227
   0.0000026272    0.0014015245    0.0000384956
  -0.0000000098    0.0014121857    0.0000103421
   0.0000049533   -0.0014119837   -0.0000011622
  -0.0000000192   -0.0014111124    0.0000001046
  -0.0000000402   -0.0014109518   -0.0000002166
  -0.0000000240   -0.0014109470   -0.0000000499
   0.0000000242   -0.0014109384   -0.0000000146
   0.0000000062   -0.0014109679    0.0000000011
   0.0000000190   -0.0014108532   -0.0000000989
   0.0000000123   -0.0014109631   -0.0000000473
  -0.0000000959   -0.0014109016    0.0000006008
  -0.0000000450   -0.0014109092    0.0000000282
   0.0000000110   -0.0014109271   -0.0000000448
   0.0000000086   -0.0014109860   -0.0000000139
  -0.0000000004   -0.0014108994   -0.0000000532
   0.0000000038   -0.0014109198   -0.0000000555
   0.0000000517   -0.0014110112    0.0000000558
   0.0000000299   -0.0014110105    0.0000000205
   0.0002371561   -0.0009688308    0.0012017882
  -0.0000003849   -0.0014418421   -0.0000006105
   0.0000007736   -0.0014341001   -0.0000143686
   0.0000000041   -0.0014363125   -0.0000113317
   0.0000001884   -0.0014448875   -0.0000096877
   0.0000000143   -0.0014454461   -0.0000066014
  -0.0000256810   -0.0014962940   -0.0000420414
   0.0000000239   -0.0014415817   -0.0000011000
   0.0000161988   -0.0014492350   -0.0001394443
  -0.0000000895   -0.0014388890   -0.0000081711
  -0.0000001325   -0.0014454706   -0.0000045980
  -0.0000000151   -0.0014456411   -0.0000077916
  -0.0000001326   -0.0014404753   -0.0000002260
  -0.0000000149   -0.0014386756   -0.0000017164
   0.0000161613   -0.0012112687    0.0000676301
  -0.0000000897   -0.0014414420   -0.0000102020
   0.0000049905    0.0014445219    0.0000020211
   0.0000000085    0.0014434570    0.0000000190
  -0.0000000071    0.0014435150    0.0000000228
   0.0000000003    0.0014435443    0.0000000442
  -0.0000000033    0.0014434843    0.0000000283
  -0.0000000007    0.0014435170    0.0000000075
  -0.0000000192    0.0014433311    0.0000004710
  -0.0000000116    0.0014435696    0.0000000239
  -0.0000001237    0.0014435416    0.0000001771
   0.0000000185    0.0014434497   -0.0000000370
  -0.0000000009    0.0014435005    0.0000000229
  -0.0000000011    0.0014434780    0.0000000562
   0.0000000007    0.0014435456    0.0000000174
  -0.0000000007    0.0014435707   -0.0000000101
   0.0000000927    0.0014437763   -0.0000004330
  -0.0000000013    0.0014435260   -0.0000000159
  -0.0000000251    0.0014109629    0.0000000359
   0.0000000000    0.0014109231   -0.0000000135
  -0.0000000028    0.0014109219   -0.0000000080
  -0.0000000000    0.0014109298    0.0000000005
   0.0000000000    0.0014109250    0.0000000068
   0.0000000000    0.0014109239    0.0000000092
  -0.0000000028    0.0014109390   -0.0000000308
  -0.0000000000    0.0014109228   -0.0000000019
  -0.0000000129    0.0014109288    0.0000000052
  -0.0000000007    0.0014109272    0.0000000019
  -0.0000000007    0.0014109327    0.0000000090
  -0.0000000001    0.0014109183    0.0000000070
  -0.0000000001    0.0014109352   -0.0000000061
   0.0000000000    0.0014109220   -0.0000000034
  -0.0000000040    0.0014109359   -0.0000000081
  -0.0000000002    0.0014109208    0.0000000033
   0.0000050048   -0.0014120131   -0.0000011476
   0.0000000018   -0.0014110954    0.0000001044
   0.0000000309   -0.0014109425   -0.0000001761
   0.0000000203   -0.0014109407   -0.0000000250
  -0.0000000255   -0.0014109775   -0.0000000146
  -0.0000000049   -0.0014109766    0.0000000011
  -0.0000000283   -0.0014108441   -0.0000001391
  -0.0000000160   -0.0014109568   -0.0000000721
   0.0000001756   -0.0014105954    0.0000005188
   0.0000000362   -0.0014109179    0.0000000913
  -0.0000000153   -0.0014109838   -0.0000000136
  -0.0000000077   -0.0014109959   -0.0000000165
  -0.0000000008   -0.0014109076   -0.0000000464
  -0.0000000063   -0.0014109217   -0.0000000609
  -0.0000001326   -0.0014109552   -0.0000001188
  -0.0000000415   -0.0014110422   -0.0000000008
  -0.0000000209   -0.0014435153    0.0000000121
  -0.0000000005   -0.0014435045    0.0000000099
  -0.0000000011   -0.0014435010    0.0000000104
  -0.0000000002   -0.0014435007    0.0000000033
  -0.0000000003   -0.0014435059   -0.0000000043
  -0.0000000001   -0.0014435034   -0.0000000067
  -0.0000000065   -0.0014435087   -0.0000000176
  -0.0000000003   -0.0014435081   -0.0000000009
  -0.0000000110   -0.0014435063   -0.0000000353
  -0.0000000006   -0.0014434986   -0.0000000052
  -0.0000000005   -0.0014435029   -0.0000000057
  -0.0000000002   -0.0014434978   -0.0000000101
  -0.0000000005   -0.0014435065    0.0000000041
  -0.0000000002   -0.0014435027   -0.0000000010
  -0.0000000110   -0.0014434600    0.0000000181
  -0.0000000006   -0.0014435056    0.0000000004
   0.0000006809    0.0014428539   -0.0000008749
  -0.0000000094    0.0014434553    0.0000000172
  -0.0000000022    0.0014435477    0.0000000141
   0.0000000009    0.0014435396    0.0000000214
   0.0000000029    0.0014434870    0.0000000547
   0.0000000009    0.0014435156    0.0000000169
  -0.0000000294    0.0014432943    0.0000004166
   0.0000000153    0.0014435950    0.0000000262
   0.0000000914    0.0014436110    0.0000000993
  -0.0000000240    0.0014434330   -0.0000000730
  -0.0000000003    0.0014435111    0.0000000350
   0.0000000019    0.0014434958    0.0000000639
  -0.0000000019    0.0014435562    0.0000000052
   0.0000000015    0.0014435883   -0.0000000179
  -0.0000001247    0.0014438454   -0.0000003549
  -0.0000000042    0.0014435096    0.0000000201
   0.0000025442    0.0014505345    0.0000111540
   0.0000025348    0.0014505360    0.0000110753
  -0.0000002022    0.0014094796    0.0000272155
  -0.0000001986    0.0013919082    0.0000119698
  -0.0000000193    0.0014001584    0.0000015922
  -0.0000000193    0.0014001627    0.0000015875
  -0.0000001983    0.0014141589   -0.0000073768
  -0.0000001992    0.0014316627    0.0000078817
  -0.0000002298    0.0014100028    0.0000164864
  -0.0000080465    0.0012672338   -0.0002172284
  -0.0000000044    0.0014040818    0.0000033460
  -0.0000002185    0.0014041099   -0.0000009489
   0.0000000017    0.0014127540    0.0000049856
   0.0000000246    0.0014118507    0.0000024665
  -0.0000000086    0.0014086665    0.0000072890
   0.0000026417    0.0014336658    0.0000662502
  -0.0000002154   -0.0014109872    0.0000001606
   0.0000000808   -0.0014111524    0.0000000622
  -0.0000000527   -0.0014110282   -0.0000000263
  -0.0000000441   -0.0014109470   -0.0000000917
   0.0000000265   -0.0014109425    0.0000000254
   0.0000000163   -0.0014109795   -0.0000000052
  -0.0000000107   -0.0014110394   -0.0000000166
   0.0000000421   -0.0014109847   -0.0000000736
  -0.0000000462   -0.0014109962    0.0000000292
  -0.0000001805   -0.0014105192   -0.0000004070
   0.0000000072   -0.0014109763   -0.0000000151
   0.0000000139   -0.0014109569   -0.0000000648
   0.0000000026   -0.0014109180   -0.0000000374
  -0.0000000013   -0.0014109005   -0.0000000483
   0.0000000196   -0.0014109484    0.0000000826
   0.0000001996   -0.0014107637    0.0000003034
  -0.0000257397   -0.0014635486    0.0000512806
  -0.0000002939   -0.0014308719    0.0000177006
   0.0000001031   -0.0014345273   -0.0000194852
  -0.0000004160   -0.0014330128   -0.0000150449
   0.0000000078   -0.0014446264   -0.0000091507
   0.0000001077   -0.0014480240   -0.0000112201
  -0.0000004242   -0.0014325570    0.0000173344
   0.0000009735   -0.0014451738   -0.0000002657
   0.0000013487   -0.0014412599   -0.0000106660
  -0.0000263507   -0.0013816532   -0.0000494427
  -0.0000000170   -0.0014481933   -0.0000097761
  -0.0000003789   -0.0014451466   -0.0000043590
  -0.0000000168   -0.0014354992    0.0000013181
  -0.0000003792   -0.0014401243    0.0000000373
   0.0000013414   -0.0014302928   -0.0000009055
  -0.0000264179   -0.0014378824   -0.0000976471
  -0.0000000313    0.0014434680    0.0000001710
   0.0000000841    0.0014431733    0.0000000430
  -0.0000000010    0.0014435255    0.0000000301
  -0.0000000000    0.0014435709    0.0000001037
   0.0000000002    0.0014435041   -0.0000000480
  -0.0000000032    0.0014434798    0.0000000445
  -0.0000000131    0.0014435543   -0.0000000190
   0.0000000188    0.0014436624   -0.0000000770
  -0.0000000049    0.0014434936   -0.0000000426
  -0.0000001127    0.0014435612    0.0000001867
  -0.0000000002    0.0014434884    0.0000000352
  -0.0000000025    0.0014434980    0.0000000444
  -0.0000000056    0.0014435471   -0.0000000127
  -0.0000000005    0.0014435062    0.0000000182
   0.0000000077    0.0014435102   -0.0000000674
   0.0000000663    0.0014436834    0.0000003099
  -0.0000000039    0.0014109110   -0.0000000139
  -0.0000000039    0.0014109107   -0.0000000134
  -0.0000000007    0.0014109280    0.0000000020
  -0.0000000007    0.0014109252   -0.0000000003
   0.0000000000    0.0014109214    0.0000000081
   0.0000000000    0.0014109211    0.0000000077
  -0.0000000007    0.0014109182   -0.0000000016
  -0.0000000007    0.0014109204    0.0000000005
  -0.0000000007    0.0014109266   -0.0000000025
  -0.0000000129    0.0014109416    0.0000000247
  -0.0000000001    0.0014109215    0.0000000074
  -0.0000000007    0.0014109156    0.0000000031
   0.0000000000    0.0014109243   -0.0000000033
  -0.0000000001    0.0014109258   -0.0000000052
  -0.0000000002    0.0014109270    0.0000000054
  -0.0000000040    0.0014109174   -0.0000000156
   0.0000001143   -0.0014107270    0.0000001604
  -0.0000001664   -0.0014113464    0.0000000619
   0.0000000451   -0.0014109841    0.0000000023
   0.0000000352   -0.0014109527   -0.0000000324
  -0.0000000264   -0.0014109842    0.0000000254
  -0.0000000162   -0.0014110051   -0.0000000052
   0.0000000031   -0.0014109955   -0.0000000453
  -0.0000000509   -0.0014109903   -0.0000001322
   0.0000000356   -0.0014109450    0.0000000406
   0.0000002569   -0.0014105856   -0.0000000493
  -0.0000000060   -0.0014109904   -0.0000000118
  -0.0000000190   -0.0014110077   -0.0000000431
  -0.0000000046   -0.0014109200   -0.0000000406
   0.0000000002   -0.0014109050   -0.0000000434
  -0.0000000306   -0.0014109530    0.0000000521
  -0.0000002993   -0.0014109070    0.0000000871
  -0.0000000066   -0.0014435325   -0.0000000082
  -0.0000000026   -0.0014434991    0.0000000188
  -0.0000000006   -0.0014435100    0.0000000062
  -0.0000000004   -0.0014434992    0.0000000027
  -0.0000000002   -0.0014435133   -0.0000000053
  -0.0000000002   -0.0014435044   -0.0000000076
  -0.0000000026   -0.0014435055    0.0000000087
  -0.0000000012   -0.0014435033   -0.0000000069
  -0.0000000012   -0.0014435009   -0.0000000029
  -0.0000000067   -0.0014435089   -0.0000000080
  -0.0000000002   -0.0014435047   -0.0000000099
  -0.0000000003   -0.0014435031   -0.0000000059
  -0.0000000002   -0.0014435057    0.0000000018
  -0.0000000003   -0.0014435100    0.0000000007
  -0.0000000012   -0.0014435149   -0.0000000034
  -0.0000000067   -0.0014435281   -0.0000000126
   0.0000000111    0.0014434448    0.0000001013
  -0.0000001281    0.0014431775    0.0000001305
   0.0000000070    0.0014435267   -0.0000000191
  -0.0000000070    0.0014435864    0.0000000603
   0.0000000015    0.0014435028   -0.0000000155
   0.0000000024    0.0014434775    0.0000000658
   0.0000000110    0.0014435673   -0.0000000218
  -0.0000000320    0.0014437402   -0.0000000973
   0.0000000067    0.0014434973   -0.0000000762
  -0.0000000846    0.0014435776    0.0000001048
   0.0000000022    0.0014434956    0.0000000398
   0.0000000021    0.0014435075    0.0000000585
   0.0000000077    0.0014435543   -0.0000000174
   0.0000000001    0.0014435157    0.0000000041
  -0.0000000059    0.0014435140   -0.0000000338
  -0.0000002638    0.0014436997    0.0000003901
  -0.0000091294    0.0012794189    0.0003023569
   0.0000000432    0.0014066766    0.0000024618
  -0.0000000901    0.0014130636    0.0000085696
   0.0000000163    0.0014132857    0.0000049985
  -0.0000000937    0.0014073163    0.0000135773
   0.0000000162    0.0014058674    0.0000114569
  -0.0000082487    0.0011353959    0.0004253043
   0.0000000426    0.0014083809    0.0000009969
   0.0000026581    0.0014459305    0.0000557882
  -0.0000000092    0.0014137927    0.0000028308
   0.0000000241    0.0014027196    0.0000104257
   0.0000000016    0.0014024907    0.0000139116
  -0.0000002169    0.0013867445    0.0000141425
  -0.0000000048    0.0014066021    0.0000011568
  -0.0000082677    0.0014192061   -0.0003500700
  -0.0000002276    0.0014275983    0.0000011585
   0.0000000682   -0.0014106262    0.0000003518
   0.0000000069   -0.0014109561   -0.0000000542
  -0.0000000193   -0.0014108939   -0.0000000802
  -0.0000000048   -0.0014109103   -0.0000000212
   0.0000000282   -0.0014109228   -0.0000000596
   0.0000000147   -0.0014109727   -0.0000000493
   0.0000003388   -0.0014111207    0.0000001256
   0.0000000028   -0.0014109120   -0.0000000055
  -0.0000002037   -0.0014111365   -0.0000002294
  -0.0000000010   -0.0014109538    0.0000000464
   0.0000000095   -0.0014109449   -0.0000000764
  -0.0000000043   -0.0014109742   -0.0000000985
   0.0000000566   -0.0014109082    0.0000000056
   0.0000000049   -0.0014109573    0.0000000113
  -0.0000002151   -0.0014115267   -0.0000000184
   0.0000000472   -0.0014111175   -0.0000000895
  -0.0000256753   -0.0014084324    0.0000343885
   0.0000000221   -0.0014485587   -0.0000072454
   0.0000001873   -0.0014346367   -0.0000007787
   0.0000000143   -0.0014374919    0.0000002663
   0.0000007696   -0.0014222641   -0.0000040604
   0.0000000040   -0.0014357635   -0.0000107350
   0.0002420158   -0.0001026303    0.0019301167
  -0.0000003850   -0.0014471086   -0.0000050715
  -0.0000000849   -0.0014189042   -0.0000144638
   0.0000001368   -0.0014368635    0.0000023530
  -0.0000000070   -0.0014327993   -0.0000088959
  -0.0000000376   -0.0014359081   -0.0000143788
  -0.0000000802   -0.0014360844   -0.0000294270
   0.0000001367   -0.0014476687   -0.0000069261
   0.0002382522    0.0001514139    0.0007852436
   0.0000001871   -0.0014472140    0.0000042304
  -0.0000000767    0.0014436583    0.0000000631
  -0.0000000088    0.0014435213    0.0000000488
   0.0000000009    0.0014435353    0.0000000230
   0.0000000023    0.0014435426   -0.0000000200
  -0.0000000038    0.0014434888    0.0000000692
   0.0000000030    0.0014435541    0.0000000486
   0.0000022159    0.0014436748   -0.0000017663
  -0.0000000524    0.0014437194   -0.0000001097
   0.0000000095    0.0014435561    0.0000000036
   0.0000000094    0.0014434877   -0.0000000251
  -0.0000000007    0.0014435380    0.0000000686
   0.0000000017    0.0014435554    0.0000000913
   0.0000000333    0.0014436640   -0.0000001216
  -0.0000000142    0.0014435719   -0.0000000595
  -0.0000002778    0.0014438426    0.0000000739
  -0.0000000589    0.0014436510    0.0000001079
  -0.0000000130    0.0014109339   -0.0000000075
  -0.0000000002    0.0014109237   -0.0000000096
  -0.0000000003    0.0014109253   -0.0000000065
   0.0000000001    0.0014109258   -0.0000000061
  -0.0000000003    0.0014109322    0.0000000002
   0.0000000001    0.0014109272    0.0000000050
  -0.0000000129    0.0014109538   -0.0000000114
  -0.0000000002    0.0014109278   -0.0000000005
  -0.0000000040    0.0014109275   -0.0000000187
  -0.0000000002    0.0014109290   -0.0000000018
  -0.0000000001    0.0014109381    0.0000000032
   0.0000000000    0.0014109238    0.0000000046
  -0.0000000007    0.0014109323    0.0000000001
  -0.0000000001    0.0014109197    0.0000000084
  -0.0000000129    0.0014109396    0.0000000360
  -0.0000000007    0.0014109170    0.0000000040
   0.0000000214   -0.0014108776    0.0000005374
  -0.0000000076   -0.0014109642   -0.0000000569
   0.0000000112   -0.0014109074   -0.0000000475
   0.0000000011   -0.0014109211   -0.0000000078
  -0.0000000363   -0.0014109362   -0.0000000921
  -0.0000000183   -0.0014109834   -0.0000000626
  -0.0000002557   -0.0014113702   -0.0000000649
  -0.0000000036   -0.0014109204   -0.0000000027
   0.0000001224   -0.0014110804   -0.0000000551
  -0.0000000106   -0.0014109855    0.0000000675
  -0.0000000106   -0.0014109530   -0.0000000831
   0.0000000018   -0.0014109759   -0.0000000928
  -0.0000000608   -0.0014109648   -0.0000000255
  -0.0000000039   -0.0014109672    0.0000000139
   0.0000002904   -0.0014112184    0.0000000606
  -0.0000000559   -0.0014111260   -0.0000001524
  -0.0000000065   -0.0014435120   -0.0000000224
  -0.0000000003   -0.0014435067   -0.0000000034
  -0.0000000003   -0.0014435080    0.0000000043
  -0.0000000001   -0.0014435061    0.0000000015
  -0.0000000011   -0.0014435110    0.0000000042
  -0.0000000002   -0.0014435021    0.0000000041
  -0.0000000209   -0.0014434879    0.0000000366
  -0.0000000005   -0.0014435066    0.0000000091
  -0.0000000025   -0.0014435022    0.0000000035
  -0.0000000003   -0.0014435031   -0.0000000015
  -0.0000000002   -0.0014435020    0.0000000075
  -0.0000000002   -0.0014434970    0.0000000043
  -0.0000000025   -0.0014434937    0.0000000034
  -0.0000000003   -0.0014434997   -0.0000000070
  -0.0000000211   -0.0014434809   -0.0000000146
  -0.0000000007   -0.0014434998   -0.0000000034
   0.0000000278    0.0014436210    0.0000001177
   0.0000000126    0.0014435467    0.0000000464
  -0.0000000014    0.0014435379   -0.0000000035
  -0.0000000021    0.0014435411   -0.0000000293
  -0.0000000055    0.0014435216    0.0000000779
  -0.0000000018    0.0014435495    0.0000000713
   0.0000033933    0.0014420228    0.0000011133
   0.0000000515    0.0014437176   -0.0000001077
   0.0000000068    0.0014435107   -0.0000000912
  -0.0000000092    0.0014434860   -0.0000000264
  -0.0000000023    0.0014435622    0.0000000685
  -0.0000000021    0.0014435580    0.0000000911
  -0.0000000171    0.0014436187   -0.0000000268
   0.0000000144    0.0014435702   -0.0000000581
   0.0000001017    0.0014437727    0.0000000737
   0.0000000790    0.0014437644    0.0000001078
   0.0000000560    0.0014194761    0.0000043761
   0.0000000292    0.0013920962   -0.0000193934
   0.0000000527    0.0014161058    0.0000094133
   0.0000000521    0.0014129633    0.0000066869
   0.0000000517    0.0014029752    0.0000153791
   0.0000000519    0.0014061159    0.0000180965
   0.0000000328    0.0013943469   -0.0000213425
   0.0000000246    0.0014215534    0.0000024840
  -0.0000000080    0.0014173082    0.0000058950
   0.0000026337    0.0014137563    0.0000278772
   0.0000000015    0.0014049526    0.0000160429
   0.0000000244    0.0014024401    0.0000101930
  -0.0000000048    0.0014031164   -0.0000018880
  -0.0000002177    0.0013867022    0.0000140719
  -0.0000002282    0.0014153158   -0.0000095607
  -0.0000078761    0.0019402560    0.0001037766
  -0.0000000345   -0.0014110801   -0.0000001320
   0.0000000190   -0.0014109709   -0.0000000051
  -0.0000000226   -0.0014109260   -0.0000000135
  -0.0000000134   -0.0014109090   -0.0000000595
   0.0000000345   -0.0014109763   -0.0000000060
   0.0000000389   -0.0014109877   -0.0000000798
   0.0000000116   -0.0014109100    0.0000000592
   0.0000000183   -0.0014110304   -0.0000000436
  -0.0000000248   -0.0014109916    0.0000000127
  -0.0000001176   -0.0014108302    0.0000000259
  -0.0000000022   -0.0014109725   -0.0000000781
   0.0000000058   -0.0014109645   -0.0000000892
   0.0000000120   -0.0014109373    0.0000000244
   0.0000000456   -0.0014109288   -0.0000000163
  -0.0000000293   -0.0014110667   -0.0000000204
   0.0000003398   -0.0014106633   -0.0000001755
  -0.0000004300   -0.0014711845   -0.0000164755
   0.0000009673   -0.0014446411    0.0000001015
   0.0000000077   -0.0014347976   -0.0000006166
   0.0000001075   -0.0014350136    0.0000000374
   0.0000001022   -0.0014209433   -0.0000075648
  -0.0000004176   -0.0014398097   -0.0000208314
  -0.0000256921   -0.0015168892    0.0000053972
  -0.0000002946   -0.0014657714   -0.0000124316
  -0.0000000882   -0.0014413210   -0.0000003908
   0.0000036075   -0.0014227751   -0.0000086667
  -0.0000000024   -0.0014326115   -0.0000126916
  -0.0000000440   -0.0014331028   -0.0000090165
  -0.0000000889   -0.0014458618   -0.0000042207
   0.0000036172   -0.0014689095   -0.0000485761
   0.0000031659   -0.0014741137   -0.0000022513
   0.0000176002   -0.0015214847    0.0001729755
  -0.0000000237    0.0014434918   -0.0000000128
  -0.0000000105    0.0014434710    0.0000000711
   0.0000000018    0.0014435313   -0.0000000281
   0.0000000017    0.0014435541    0.0000000114
   0.0000000127    0.0014435636   -0.0000000297
   0.0000000060    0.0014435400    0.0000000815
  -0.0000000506    0.0014436372   -0.0000001867
  -0.0000001038    0.0014441841   -0.0000000165
   0.0000000048    0.0014435142   -0.0000000144
  -0.0000000179    0.0014436652    0.0000000379
   0.0000000020    0.0014435509    0.0000000724
   0.0000000001    0.0014435385    0.0000000848
  -0.0000000124    0.0014435602   -0.0000000830
   0.0000000044    0.0014433868    0.0000000374
  -0.0000000533    0.0014436731    0.0000000412
   0.0000012843    0.0014423558   -0.0000005491
  -0.0000000028    0.0014109144   -0.0000000250
  -0.0000000027    0.0014109325   -0.0000000090
  -0.0000000000    0.0014109234   -0.0000000056
  -0.0000000000    0.0014109208   -0.0000000078
  -0.0000000000    0.0014109249    0.0000000017
  -0.0000000000    0.0014109269    0.0000000035
  -0.0000000028    0.0014109192    0.0000000157
  -0.0000000027    0.0014109006    0.0000000002
  -0.0000000002    0.0014109298   -0.0000000042
  -0.0000000040    0.0014109261   -0.0000000114
   0.0000000000    0.0014109268    0.0000000054
  -0.0000000001    0.0014109265    0.0000000023
  -0.0000000001    0.0014109226    0.0000000084
  -0.0000000007    0.0014109290    0.0000000060
  -0.0000000007    0.0014109254    0.0000000073
  -0.0000000129    0.0014109075    0.0000000168
   0.0000000270   -0.0014110678   -0.0000001005
  -0.0000000267   -0.0014110064   -0.0000000057
   0.0000000156   -0.0014109409    0.0000000255
   0.0000000059   -0.0014109352   -0.0000000235
  -0.0000000414   -0.0014109911   -0.0000000451
  -0.0000000462   -0.0014110136   -0.0000001154
  -0.0000000191   -0.0014108980    0.0000000276
  -0.0000000260   -0.0014110660   -0.0000000428
   0.0000000137   -0.0014109961    0.0000000431
   0.0000000170   -0.0014109743    0.0000002433
   0.0000000002   -0.0014109744   -0.0000000749
  -0.0000000069   -0.0014109689   -0.0000000941
  -0.0000000109   -0.0014109516    0.0000000210
  -0.0000000506   -0.0014109796   -0.0000000379
   0.0000000186   -0.0014110154   -0.0000000320
  -0.0000002657   -0.0014107311   -0.0000005322
  -0.0000000026   -0.0014435132    0.0000000006
  -0.0000000012   -0.0014435043   -0.0000000097
  -0.0000000002   -0.0014435170    0.0000000023
  -0.0000000002   -0.0014435058    0.0000000024
  -0.0000000006   -0.0014435087    0.0000000080
  -0.0000000004   -0.0014435019    0.0000000009
  -0.0000000066   -0.0014435175    0.0000000071
  -0.0000000026   -0.0014434983    0.0000000190
  -0.0000000005   -0.0014435069   -0.0000000003
  -0.0000000018   -0.0014435062   -0.0000000082
  -0.0000000001   -0.0014435026    0.0000000055
  -0.0000000001   -0.0014435035    0.0000000071
  -0.0000000005   -0.0014435015   -0.0000000045
  -0.0000000018   -0.0014435149   -0.0000000253
  -0.0000000018   -0.0014435171   -0.0000000100
  -0.0000000113   -0.0014435191    0.0000000330
   0.0000000216    0.0014435048   -0.0000000101
  -0.0000000029    0.0014435492    0.0000000912
  -0.0000000001    0.0014435299   -0.0000000605
  -0.0000000025    0.0014435516   -0.0000000100
  -0.0000000068    0.0014435649    0.0000000194
  -0.0000000130    0.0014435556    0.0000001245
   0.0000000304    0.0014436139   -0.0000001168
   0.0000000600    0.0014441876   -0.0000001037
  -0.0000000056    0.0014435061   -0.0000000353
   0.0000000016    0.0014436224   -0.0000000109
   0.0000000023    0.0014435448    0.0000000723
  -0.0000000036    0.0014435583    0.0000000847
   0.0000000116    0.0014435522   -0.0000000620
  -0.0000000206    0.0014433446    0.0000000860
   0.0000000489    0.0014436569    0.0000000412
   0.0000043827    0.0014457591   -0.0000005441

1    
 -0.0045801749592508  -0.0058194991445740  -0.0067197787946446
   0.0006139239    0.0053744219    0.0046191140
  -0.0000001379    0.0014073450   -0.0000045982
  -0.0000003262    0.0014380305   -0.0000162799
  -0.0000000011    0.0014171305   -0.0000131356
   0.0000000197    0.0014217808   -0.0000020790
   0.0000000085    0.0014185021   -0.0000007032
  -0.0000003433    0.0014231339   -0.0000034672
  -0.0000000002    0.0014071978   -0.0000045787
   0.0000077340    0.0010328457   -0.0002361712
   0.0000002306    0.0014243349   -0.0000057503
   0.0000002150    0.0014176878    0.0000009227
   0.0000000042    0.0014212679   -0.0000003073
  -0.0000000240    0.0014102313   -0.0000023044
  -0.0000000015    0.0014065691   -0.0000072229
  -0.0000026430    0.0014204056   -0.0000387809
   0.0000000095    0.0014096564   -0.0000104207
  -0.0000050594   -0.0014098784    0.0000011312
   0.0000000195   -0.0014107354   -0.0000001216
   0.0000000398   -0.0014109047    0.0000002143
   0.0000000240   -0.0014109095    0.0000000485
  -0.0000000243   -0.0014109093    0.0000000300
  -0.0000000063   -0.0014108793    0.0000000141
  -0.0000000192   -0.0014109944    0.0000000878
  -0.0000000124   -0.0014108841    0.0000000366
   0.0000001044   -0.0014109420   -0.0000005839
   0.0000000453   -0.0014109590   -0.0000000163
  -0.0000000109   -0.0014109201    0.0000000568
  -0.0000000089   -0.0014108802    0.0000000259
   0.0000000004   -0.0014109485    0.0000000422
  -0.0000000040   -0.0014109469    0.0000000453
  -0.0000000519   -0.0014108475   -0.0000000564
  -0.0000000301   -0.0014108659   -0.0000000196
  -0.0002396165   -0.0019244267   -0.0011966235
   0.0000003869   -0.0014451914    0.0000006528
  -0.0000007600   -0.0014528445    0.0000144797
  -0.0000000035   -0.0014506856    0.0000114519
  -0.0000001877   -0.0014420695    0.0000097441
  -0.0000000143   -0.0014415193    0.0000066369
   0.0000256047   -0.0013900304    0.0000426847
  -0.0000000230   -0.0014454436    0.0000011364
  -0.0000161397   -0.0014365292    0.0001400505
   0.0000000895   -0.0014480925    0.0000082406
   0.0000001325   -0.0014415014    0.0000046047
   0.0000000144   -0.0014413206    0.0000078244
   0.0000001324   -0.0014465294    0.0000002761
   0.0000000146   -0.0014483506    0.0000017583
  -0.0000161770   -0.0016771846   -0.0000679476
   0.0000000892   -0.0014455646    0.0000103003
  -0.0000049081    0.0014424996   -0.0000019814
  -0.0000000088    0.0014435701   -0.0000000069
   0.0000000070    0.0014434914   -0.0000000112
  -0.0000000003    0.0014434807   -0.0000000331
   0.0000000034    0.0014435221   -0.0000000394
   0.0000000007    0.0014435083   -0.0000000184
   0.0000000200    0.0014436843   -0.0000004685
   0.0000000116    0.0014434654   -0.0000000226
   0.0000001236    0.0014434831   -0.0000001934
  -0.0000000186    0.0014435558    0.0000000201
   0.0000000009    0.0014435248   -0.0000000377
   0.0000000011    0.0014435282   -0.0000000710
  -0.0000000007    0.0014434890   -0.0000000148
   0.0000000007    0.0014434439    0.0000000127
  -0.0000000933    0.0014432592    0.0000004358
   0.0000000015    0.0014434898    0.0000000172
   0.0000000250    0.0014108859   -0.0000000511
  -0.0000000001    0.0014109259   -0.0000000019
   0.0000000027    0.0014109353    0.0000000054
   0.0000000000    0.0014109277   -0.0000000031
  -0.0000000000    0.0014109229    0.0000000086
  -0.0000000000    0.0014109242    0.0000000063
   0.0000000028    0.0014109098    0.0000000194
   0.0000000000    0.0014109260   -0.0000000093
   0.0000000128    0.0014109390    0.0000000062
   0.0000000007    0.0014109150    0.0000000094
   0.0000000007    0.0014109343    0.0000000030
   0.0000000001    0.0014109232    0.0000000051
   0.0000000001    0.0014109320   -0.0000000053
  -0.0000000001    0.0014109196   -0.0000000079
   0.0000000040    0.0014109412    0.0000000097
   0.0000000002    0.0014109307   -0.0000000015
  -0.0000048979   -0.0014098212    0.0000011458
  -0.0000000021   -0.0014107520   -0.0000001217
  -0.0000000306   -0.0014109138    0.0000001742
  -0.0000000203   -0.0014109157    0.0000000237
   0.0000000256   -0.0014108700    0.0000000301
   0.0000000050   -0.0014108704    0.0000000141
   0.0000000285   -0.0014110037    0.0000001282
   0.0000000161   -0.0014108903    0.0000000614
  -0.0000001753   -0.0014112518   -0.0000005080
  -0.0000000367   -0.0014109505   -0.0000000794
   0.0000000152   -0.0014108635    0.0000000256
   0.0000000079   -0.0014108701    0.0000000286
   0.0000000007   -0.0014109404    0.0000000354
   0.0000000064   -0.0014109452    0.0000000508
   0.0000001330   -0.0014109037    0.0000001179
   0.0000000417   -0.0014108339    0.0000000016
   0.0000000209   -0.0014434922   -0.0000000006
   0.0000000005   -0.0014435025    0.0000000014
   0.0000000011   -0.0014435057    0.0000000016
   0.0000000002   -0.0014435055    0.0000000088
   0.0000000002   -0.0014435008   -0.0000000071
   0.0000000001   -0.0014435030   -0.0000000046
   0.0000000065   -0.0014435080    0.0000000191
   0.0000000003   -0.0014435083    0.0000000026
   0.0000000109   -0.0014435007    0.0000000186
   0.0000000005   -0.0014435017   -0.0000000115
   0.0000000004   -0.0014435033   -0.0000000088
   0.0000000002   -0.0014435019   -0.0000000044
   0.0000000005   -0.0014435094   -0.0000000011