512  
4    

1    
  0.0046257503802354   0.0058004478369895   0.0067050159067758
  -0.0652188400   -0.3667036800   -0.3983724900
   0.0000169200   -0.0157425900    0.0003380200
  -0.0000622800   -0.0181582900    0.0010594600
   0.0000072100   -0.0163497400    0.0007838100
  -0.0000036000   -0.0166058600    0.0001581600
  -0.0000018100   -0.0164073500    0.0000475600
  -0.0000644000   -0.0172888400    0.0002525200
   0.0000026900   -0.0158446300    0.0002638000
  -0.0019533100    0.0199037300    0.0156032400
  -0.0000245300   -0.0169762200    0.0003964200
  -0.0000250100   -0.0162855900   -0.0001956500
  -0.0000005400   -0.0167033000   -0.0000695100
  -0.0000004900   -0.0159665000    0.0000402900
   0.0000033700   -0.0156449100    0.0003861500
   0.0003237900   -0.0164065500    0.0024981100
   0.0000026300   -0.0159334000    0.0005369400
   0.0003337900    0.0159594800   -0.0001512100
  -0.0000038100    0.0158949100    0.0000808800
   0.0000043400    0.0160147500   -0.0000248000
  -0.0000095400    0.0160397800   -0.0000195900
   0.0000031700    0.0160353100   -0.0000295300
  -0.0000047200    0.0160124800   -0.0000393700
  -0.0000009900    0.0160062800   -0.0000145200
   0.0000076300    0.0160262800   -0.0000244500
  -0.0001321600    0.0159238900   -0.0000275700
  -0.0000186900    0.0159951700   -0.0000519600
   0.0000048800    0.0159946200   -0.0001268000
  -0.0000105100    0.0159650200   -0.0001329100
  -0.0000025800    0.0160019200   -0.0001081000
   0.0000049600    0.0159920500   -0.0001019700
   0.0000132300    0.0160300500   -0.0000016600
   0.0000009200    0.0159830100   -0.0000982300
  -0.0000325500    0.0056582400   -0.0000204600
   0.0266062100    0.0483239400    0.1065214300
   0.0000051500    0.0059396200   -0.0007205400
   0.0000843700    0.0062721700   -0.0005325200
   0.0000025000    0.0053504900   -0.0003283500
   0.0000139200    0.0054642300   -0.0004794300
  -0.0000002000    0.0056250100   -0.0000524500
  -0.0021438600    0.0015147700   -0.0045495200
   0.0016454100    0.0057600300   -0.0082475400
  -0.0000081500    0.0058653600   -0.0004659200
  -0.0000159600    0.0053590900   -0.0002047700
   0.0000000800    0.0053137400   -0.0005210900
  -0.0000158500    0.0054946400   -0.0001060900
   0.0000006500    0.0056852800   -0.0001629000
   0.0016514900    0.0212450300    0.0053124100
  -0.0000113400    0.0056033900   -0.0006392200
   0.0002789600   -0.0054156300    0.0000609100
  -0.0000047400   -0.0054764200    0.0000025400
   0.0000011100   -0.0054442300   -0.0000064000
  -0.0000068200   -0.0054906400   -0.0000056100
  -0.0000037900   -0.0054829500    0.0000023100
   0.0000015600   -0.0054353400    0.0000142300
  -0.0000182700   -0.0055417500    0.0000684100
  -0.0000027900   -0.0054848900    0.0000056000
  -0.0000009300   -0.0054229600    0.0000634100
   0.0000089900   -0.0055029000    0.0000060800
   0.0000046200   -0.0054221400   -0.0000259300
  -0.0000026300   -0.0054369000    0.0000244100
  -0.0000028800   -0.0054119500    0.0000083500
  -0.0000041000   -0.0054102600    0.0000214600
   0.0000584400   -0.0053277700   -0.0001552500
  -0.0000035600   -0.0053944900    0.0000283200
  -0.0000203300   -0.0160199700   -0.0000196600
   0.0000007200   -0.0159999900   -0.0000164500
  -0.0000025900   -0.0160182300    0.0000303100
  -0.0000032800   -0.0160406000    0.0000282500
   0.0000021000   -0.0160494000    0.0000056400
  -0.0000008900   -0.0160157100    0.0000055900
  -0.0000024500   -0.0160231300   -0.0000219300
   0.0000001000   -0.0160245100   -0.0000224200
   0.0000031800   -0.0159558700   -0.0001114600
  -0.0000006200   -0.0159747500   -0.0000913700
   0.0000002200   -0.0159809500   -0.0000896200
  -0.0000009000   -0.0159649000   -0.0000955800
   0.0000022700   -0.0159715000   -0.0000749200
  -0.0000001500   -0.0160018700   -0.0000797400
   0.0000013000   -0.0159864900   -0.0000850700
   0.0000033800   -0.0159856200   -0.0000737100
   0.0003328600    0.0159685700   -0.0001607900
   0.0000001800    0.0158878000    0.0000207400
   0.0000002600    0.0160370800   -0.0000157200
   0.0000107400    0.0160066900   -0.0000289800
  -0.0000043400    0.0160055400   -0.0000205000
   0.0000056800    0.0160025600   -0.0000268100
   0.0000011000    0.0160161800   -0.0000397100
  -0.0000046800    0.0160213700   -0.0000088800
   0.0000994100    0.0160722500   -0.0000052900
   0.0000179500    0.0160520400    0.0000009000
  -0.0000011800    0.0159650400   -0.0001381400
   0.0000106500    0.0160063600   -0.0000960300
  -0.0000014900    0.0160344300   -0.0001304400
  -0.0000066700    0.0159682800   -0.0000895900
  -0.0000346500    0.0160690000   -0.0000247400
   0.0000000900    0.0159954000   -0.0001121900
  -0.0000024100    0.0054826600   -0.0000024700
  -0.0000031100    0.0054441400   -0.0000255800
  -0.0000030800    0.0054434200   -0.0000191800
   0.0000007400    0.0054824600   -0.0000339300
  -0.0000000200    0.0054946200   -0.0000106900
   0.0000017900    0.0054274500   -0.0000143400
   0.0000043100    0.0054736700   -0.0000145500
   0.0000000300    0.0054748300    0.0000159600
  -0.0000036300    0.0054492600   -0.0000052900
  -0.0000045600    0.0054199400    0.0000005200
  -0.0000006400    0.0054387100    0.0000049100
  -0.0000000900    0.0054483600   -0.0000267600
   0.0000046000    0.0054350600    0.0000173400
   0.0000023700    0.0054007200   -0.0000162500
  -0.0000003100    0.0054313200    0.0000066300
   0.0000011800    0.0054280700   -0.0000030400
   0.0001725800   -0.0055615700   -0.0001349400
   0.0000051200   -0.0054881500    0.0000099200
  -0.0000030200   -0.0054527000   -0.0000137300
   0.0000043000   -0.0054899500    0.0000063800
   0.0000016600   -0.0054501500   -0.0000009800
  -0.0000045200   -0.0054753500    0.0000236600
   0.0000172900   -0.0055600000    0.0001559600
   0.0000077500   -0.0054539800    0.0000051000
   0.0000050500   -0.0054419200    0.0000346900
  -0.0000097400   -0.0054753600   -0.0000259200
  -0.0000035200   -0.0054197000    0.0000040100
   0.0000006700   -0.0054275300   -0.0000202100
  -0.0000002700   -0.0053963700   -0.0000370800
  -0.0000010400   -0.0053939700    0.0000462700
  -0.0000567900   -0.0053465600   -0.0001009000
   0.0000011500   -0.0053548600   -0.0000256900
   0.0003094100   -0.0134153500    0.0009147600
   0.0003068200   -0.0134088300    0.0008773000
  -0.0000234000   -0.0160440100    0.0018449400
  -0.0000235400   -0.0172468400    0.0008301100
  -0.0000048300   -0.0166830100    0.0001461300
  -0.0000035600   -0.0166958100    0.0001468100
  -0.0000216600   -0.0156752600   -0.0004855200
  -0.0000253700   -0.0145255900    0.0005330400
  -0.0000234900   -0.0161463000    0.0011072000
  -0.0017843100   -0.0235099500   -0.0219145500
   0.0000019700   -0.0164082000    0.0001829100
  -0.0000266600   -0.0162278200   -0.0001248200
   0.0000012400   -0.0158836400    0.0002097500
   0.0000014100   -0.0160328700    0.0000478000
   0.0000035600   -0.0162156100    0.0002786200
   0.0003258300   -0.0145240600    0.0041526600
  -0.0000433800    0.0159604200    0.0000240900
   0.0000223100    0.0159194800    0.0001213000
  -0.0000232400    0.0159700700    0.0000163500
  -0.0000160400    0.0160229900   -0.0000203700
   0.0000068200    0.0160363400    0.0000423400
  -0.0000023900    0.0160078700    0.0000195000
  -0.0000036700    0.0159827100   -0.0000001500
   0.0000141700    0.0159895400   -0.0000520500
  -0.0000156100    0.0159580600   -0.0000551000
  -0.0000671300    0.0160876300   -0.0001753000
  -0.0000006700    0.0159908000   -0.0001080100
   0.0000076400    0.0160014500   -0.0001227200
  -0.0000013600    0.0159675800   -0.0001023400
  -0.0000002200    0.0159765100   -0.0000818000
   0.0000064700    0.0159650600   -0.0000847000
   0.0000200300    0.0160467300   -0.0000365900
  -0.0022033900    0.0029304600    0.0052057700
  -0.0000287500    0.0062731400    0.0012429100
   0.0000112700    0.0060409600   -0.0011900200
  -0.0000335300    0.0061064400   -0.0010284200
  -0.0000025700    0.0054283300   -0.0006020200
   0.0000075300    0.0051527400   -0.0006986300
  -0.0000487200    0.0062975200    0.0011909000
   0.0000932400    0.0055427100   -0.0001434200
   0.0001473500    0.0058079400   -0.0003336300
  -0.0022188600    0.0118572800   -0.0025365800
  -0.0000013600    0.0051366300   -0.0006206900
  -0.0000293100    0.0053100000   -0.0001615100
  -0.0000007400    0.0059241400    0.0001371800
  -0.0000294700    0.0054871900    0.0000068900
   0.0001396600    0.0062537300    0.0001501900
  -0.0022361100    0.0052210800   -0.0081586000
  -0.0000079800   -0.0054606500   -0.0000241400
   0.0000209500   -0.0056153900   -0.0000129200
   0.0000047400   -0.0054612000    0.0000000600
   0.0000036700   -0.0054322600    0.0000051300
  -0.0000029500   -0.0054531900   -0.0000355300
  -0.0000010800   -0.0055020400    0.0000296700
  -0.0000029900   -0.0054789100    0.0000099200
  -0.0000091200   -0.0054595300    0.0000122100
   0.0000036900   -0.0054647300   -0.0000112300
  -0.0000153000   -0.0054216800    0.0000719300
   0.0000015000   -0.0054139800    0.0000119400
   0.0000057900   -0.0054061300   -0.0000092600
  -0.0000076800   -0.0054499800    0.0000119400
  -0.0000023800   -0.0053999500    0.0000297000
   0.0000091700   -0.0053751600   -0.0000190800
  -0.0000915800   -0.0053783100    0.0000773000
  -0.0000006300   -0.0160547900   -0.0000350400
   0.0000029700   -0.0160046000   -0.0000030000
   0.0000012200   -0.0160171300   -0.0000046000
   0.0000012000   -0.0160026100    0.0000167300
   0.0000034300   -0.0160235700   -0.0000113400
   0.0000017900   -0.0160398500    0.0000058400
   0.0000028600   -0.0160727100   -0.0000185900
   0.0000017600   -0.0160445600    0.0000104700
  -0.0000029200   -0.0160172200   -0.0000784900
   0.0000047300   -0.0160270900   -0.0000890800
   0.0000011200   -0.0160055500   -0.0000893500
   0.0000016600   -0.0159925100   -0.0000996500
   0.0000001900   -0.0159758300   -0.0001085000
   0.0000026200   -0.0160011600   -0.0000542700
   0.0000036600   -0.0160154700   -0.0000517800
   0.0000022100   -0.0160028800   -0.0000638100
   0.0000200200    0.0160256700    0.0000062300
  -0.0000473700    0.0158795500    0.0001312300
   0.0000202700    0.0159930200    0.0000095700
   0.0000095100    0.0160476200    0.0000121100
  -0.0000087700    0.0159847500    0.0000335600
   0.0000009300    0.0160454600    0.0000018900
  -0.0000018900    0.0159811000    0.0000085800
  -0.0000164400    0.0159816800   -0.0000732600
   0.0000110400    0.0159671000   -0.0000329800
   0.0000271900    0.0159606800   -0.0000314400
   0.0000018800    0.0159914000   -0.0001491700
  -0.0000083300    0.0159709600   -0.0000946300
  -0.0000030700    0.0160029500   -0.0001076600
  -0.0000001000    0.0160051000   -0.0000876200
  -0.0000083600    0.0159906500   -0.0000442600
  -0.0000408300    0.0159890000   -0.0000625100
  -0.0000015100    0.0054772100   -0.0000490800
   0.0000004900    0.0054879600    0.0000062700
   0.0000005700    0.0054779200   -0.0000302400
  -0.0000006500    0.0054631300   -0.0000367800
   0.0000034400    0.0054590700   -0.0000099900
  -0.0000001800    0.0054606800   -0.0000284100
   0.0000009300    0.0054514500   -0.0000188100
   0.0000031100    0.0054805800   -0.0000052600
  -0.0000029400    0.0053999600    0.0000428300
  -0.0000017200    0.0053947000    0.0000045600
  -0.0000003200    0.0054010700   -0.0000026200
   0.0000022900    0.0054126700    0.0000011500
   0.0000019700    0.0054252300   -0.0000072300
   0.0000007800    0.0054469200   -0.0000141200
   0.0000032500    0.0054077700   -0.0000080500
   0.0000025000    0.0053884700    0.0000106000
   0.0000061500   -0.0055078100   -0.0000200100
  -0.0000217000   -0.0055443700    0.0000069600
  -0.0000038700   -0.0054523200   -0.0000721100
  -0.0000072700   -0.0054441000   -0.0000166100
   0.0000002100   -0.0054717800   -0.0000201300
   0.0000005300   -0.0054918000    0.0000188300
   0.0000027800   -0.0054624000    0.0000247600
   0.0000073500   -0.0054642100    0.0000677800
  -0.0000003900   -0.0054449800    0.0000251000
  -0.0000743200   -0.0054483400    0.0000234100
  -0.0000008100   -0.0054208200    0.0000025300
  -0.0000048700   -0.0054241600   -0.0000044200
   0.0000046000   -0.0054083400   -0.0000216800
   0.0000026600   -0.0054179400   -0.0000037000
  -0.0000091600   -0.0054208600    0.0000046500
  -0.0000018400   -0.0053568900    0.0001296600
  -0.0019586100   -0.0306908100    0.0287427900
   0.0000071000   -0.0164121500    0.0002449000
   0.0000037400   -0.0159686200    0.0005426500
   0.0000051700   -0.0158180100    0.0002605500
   0.0000028500   -0.0161248000    0.0006632600
   0.0000029300   -0.0162800000    0.0006704600
  -0.0018009200   -0.0343280200    0.0316748100
   0.0000037400   -0.0161765300   -0.0000195400
   0.0003277200   -0.0137351900    0.0036745700
   0.0000096800   -0.0158274200    0.0001472600
   0.0000022300   -0.0164483000    0.0006046300
   0.0000003700   -0.0165195600    0.0009615500
  -0.0000244500   -0.0174972900    0.0011489700
  -0.0000010600   -0.0160963000    0.0000939300
  -0.0018229400   -0.0194981100   -0.0253403600
  -0.0000247700   -0.0147580900    0.0000911900
  -0.0000770500    0.0160323900    0.0000145500
  -0.0000035900    0.0160242300    0.0000111400
   0.0000010500    0.0159909200   -0.0000199000
  -0.0000010100    0.0159855100   -0.0000435600
  -0.0000004100    0.0159597100   -0.0000295300
  -0.0000067000    0.0159870100   -0.0000393600
   0.0000877100    0.0159959100    0.0000834800
   0.0000014000    0.0159635800   -0.0000757300
  -0.0000496700    0.0159272500    0.0000658100
   0.0000011300    0.0159617400    0.0000959100
   0.0000037100    0.0159766600    0.0000684500
  -0.0000099700    0.0159786300    0.0000655000
   0.0000170700    0.0160319300    0.0000801900
  -0.0000012900    0.0159819700    0.0000238900
  -0.0001043300    0.0157905400    0.0000867800
   0.0000206600    0.0158840200    0.0000209100
   0.0000050600    0.0052627100   -0.0004159900
  -0.0021407200    0.0101184800    0.0029696200
   0.0000028600    0.0057931500    0.0000237500
   0.0000165000    0.0059394100   -0.0000184300
   0.0000020900    0.0058975400   -0.0006258000
   0.0000842800    0.0067373200   -0.0000556400
  -0.0000352000    0.0051519900   -0.0003269400
   0.0273197900    0.1227031400    0.1676316900
   0.0265852300    0.1501170000    0.0705871700
   0.0000243400    0.0052306300    0.0003310600
  -0.0000083800    0.0068958500   -0.0010746000
   0.0000126300    0.0059183600    0.0002072700
   0.0000025400    0.0060937100   -0.0004868900
  -0.0000019600    0.0059529800   -0.0009755000
  -0.0000060500    0.0061902300   -0.0017650900
   0.0000083300    0.0052737300   -0.0003038800
   0.0000250400   -0.0054152500    0.0001050600
  -0.0000065500   -0.0054613000    0.0000572500
   0.0000001800   -0.0054842900    0.0000202200
  -0.0000013400   -0.0054780500    0.0000278600
  -0.0000056300   -0.0054929200    0.0000403800
   0.0000034700   -0.0054151100    0.0000447000
   0.0002950200   -0.0054819400   -0.0001689800
  -0.0000326400   -0.0052816900   -0.0000373200
  -0.0000788400   -0.0053463800    0.0000034000
  -0.0000541700   -0.0053909100    0.0000193700
   0.0000181200   -0.0054965200    0.0000796900
   0.0000016000   -0.0055463100    0.0000111500
  -0.0000034300   -0.0055085700    0.0000273100
  -0.0000034000   -0.0055066500    0.0000423900
   0.0000156300   -0.0054564700   -0.0000581300
  -0.0000044600   -0.0054668700   -0.0000056700
   0.0000002100   -0.0159787100    0.0000032300
  -0.0000023300   -0.0159805400    0.0000110700
   0.0000016600   -0.0159762300   -0.0000219000
   0.0000004100   -0.0160079900    0.0000044200
   0.0000015100   -0.0160141500    0.0000232200
   0.0000025100   -0.0159708900    0.0000079100
   0.0000035900   -0.0159774200    0.0000362700
   0.0000016700   -0.0159591800    0.0000033400
  -0.0000000100   -0.0159540600    0.0001145900
  -0.0000041000   -0.0159794200    0.0000879700
   0.0000014600   -0.0159663500    0.0000564900
   0.0000016100   -0.0159786700    0.0001205700
   0.0000034100   -0.0159424700    0.0001100100
   0.0000043200   -0.0159981300    0.0000736300
   0.0000053100   -0.0159363700    0.0000892900
  -0.0000005200   -0.0159841100    0.0000841700
   0.0000346200    0.0159957500    0.0001084000
   0.0000062300    0.0159910400    0.0000618200
  -0.0000022800    0.0159715000   -0.0000315200
  -0.0000021600    0.0159836200   -0.0000404400
  -0.0000016600    0.0159613100   -0.0000225000
   0.0000005400    0.0159623400   -0.0000656400
  -0.0001357400    0.0159727100    0.0000051300
   0.0000009600    0.0159321700   -0.0000578700
   0.0000328300    0.0159683200    0.0001005400
   0.0000003000    0.0159728700    0.0000699500
  -0.0000033500    0.0159941100    0.0001199800
   0.0000067600    0.0159878100    0.0000329100
  -0.0000210400    0.0160049100    0.0000461800
   0.0000005700    0.0160011600    0.0000410900
   0.0000693200    0.0159228800    0.0000486600
  -0.0000232300    0.0158635200   -0.0000160200
  -0.0000032500    0.0054360500    0.0000023500
  -0.0000033300    0.0054570800    0.0000592900
  -0.0000021700    0.0054562300    0.0000386700
   0.0000015100    0.0054619500    0.0000130000
  -0.0000005300    0.0054965700   -0.0000132400
  -0.0000002300    0.0054353500   -0.0000195500
  -0.0000004600    0.0054809800    0.0000013400
  -0.0000012600    0.0054559500   -0.0000311600
   0.0000081700    0.0055567000   -0.0000187300
  -0.0000019900    0.0055256800   -0.0000172600
  -0.0000032600    0.0054960100    0.0000155300
  -0.0000058600    0.0055386700    0.0000373400
   0.0000016200    0.0055163400   -0.0000186000
  -0.0000011500    0.0054965500    0.0000077200
  -0.0000000300    0.0055612700   -0.0000002800
   0.0000012800    0.0055108500   -0.0000118700
  -0.0000196000   -0.0054197300    0.0000689800
   0.0000086100   -0.0055115500    0.0000367400
  -0.0000019100   -0.0054856500    0.0000358300
  -0.0000005000   -0.0055236900    0.0000468200
   0.0000006000   -0.0054858600    0.0000185700
  -0.0000044200   -0.0054249800    0.0000184200
   0.0001456800   -0.0056233300   -0.0000177200
   0.0000309400   -0.0053260500   -0.0000360000
  -0.0000022100   -0.0054034100   -0.0000111100
   0.0000623500   -0.0052919200    0.0000541100
  -0.0000096100   -0.0054818000    0.0000036200
  -0.0000013100   -0.0055132400    0.0000546600
  -0.0000000900   -0.0054943000    0.0000614500
   0.0000014300   -0.0054779400    0.0000540900
  -0.0000091600   -0.0054695500    0.0000103300
   0.0000052700   -0.0054816800    0.0000118700
  -0.0000826700   -0.0152064000    0.0001880000
  -0.0000885400   -0.0176533000   -0.0019087800
   0.0000072000   -0.0156461800    0.0005943700
   0.0000046500   -0.0158759400    0.0004247100
   0.0000066400   -0.0164808000    0.0009638000
   0.0000063200   -0.0162561700    0.0011388300
  -0.0000900400   -0.0174767300   -0.0020825600
  -0.0000919100   -0.0150217500    0.0000413800
   0.0000100500   -0.0155462600    0.0003754900
   0.0003206700   -0.0156379000    0.0019843000
   0.0000018500   -0.0163478700    0.0011507600
   0.0000016700   -0.0164286000    0.0006331700
  -0.0000000000   -0.0163818300   -0.0001287900
  -0.0000270700   -0.0175880500    0.0010878600
  -0.0000260600   -0.0156074800   -0.0006258700
  -0.0017574700    0.0234234900    0.0118669100
  -0.0000012500    0.0159761100   -0.0000128100
  -0.0000095700    0.0160172600   -0.0000623800
  -0.0000077500    0.0159728100   -0.0000314200
  -0.0000007800    0.0159984100   -0.0000325600
   0.0000105800    0.0160031300    0.0000111100
   0.0000033000    0.0159525700   -0.0000442400
   0.0000027300    0.0159282100   -0.0000408000
   0.0000002600    0.0159123500   -0.0001083100
  -0.0000011300    0.0159929500    0.0001056300
  -0.0000106900    0.0160449700    0.0001206300
  -0.0000048700    0.0160092800    0.0000410500
   0.0000003400    0.0159942100    0.0000501600
  -0.0000027900    0.0159548100    0.0000590800
   0.0000009200    0.0159966200    0.0000647400
  -0.0000083000    0.0158564700    0.0000758400
   0.0001403300    0.0160103800    0.0000608700
  -0.0000495700    0.0037741900   -0.0011949000
   0.0000972300    0.0057158800    0.0000616100
  -0.0000018700    0.0059604400   -0.0000150200
   0.0000065700    0.0059332200    0.0000092800
   0.0000128300    0.0068018600   -0.0004847500
  -0.0000346700    0.0056328800   -0.0014463400
  -0.0021948800   -0.0006199700    0.0023552100
  -0.0000305200    0.0039198000   -0.0005499600
   0.0002421500    0.0033047700   -0.0002734400
   0.0018449300    0.0010106200    0.0120679800
  -0.0000054400    0.0055505200   -0.0000309200
   0.0002693800    0.0065226700   -0.0008257100
   0.0000020100    0.0061664600   -0.0007549100
   0.0000017200    0.0061329900   -0.0004067700
  -0.0000076300    0.0053426000   -0.0001727500
   0.0002670500    0.0036621900   -0.0032185600
  -0.0000036100   -0.0054627300    0.0000180700
   0.0000122400   -0.0054802200    0.0000687700
   0.0000008000   -0.0054619300   -0.0000018800
   0.0000031500   -0.0054581000    0.0000204900
   0.0000038600   -0.0054187300   -0.0000319400
  -0.0000058800   -0.0054738500    0.0000298800
  -0.0000012000   -0.0053463300    0.0000146400
  -0.0000764000   -0.0052010900    0.0000339000
  -0.0000336200   -0.0054005600    0.0000207800
   0.0001078500   -0.0055227200   -0.0001144900
   0.0000013900   -0.0054996300    0.0000102100
   0.0000037400   -0.0054788800    0.0000245600
   0.0000007000   -0.0054875300    0.0000314700
   0.0000012700   -0.0054782400    0.0000081700
  -0.0000078900   -0.0054900700   -0.0000355500
  -0.0000169000   -0.0054853200    0.0000332700
  -0.0000007000   -0.0159899700    0.0000187300
   0.0000001500   -0.0159650800   -0.0000006800
   0.0000001200   -0.0159717200    0.0000002700
   0.0000013700   -0.0159768200   -0.0000031400
   0.0000010600   -0.0160248200    0.0000305000
   0.0000013700   -0.0159536200   -0.0000061600
   0.0000038100   -0.0159861300    0.0000345300
   0.0000032700   -0.0159750200   -0.0000033700
  -0.0000010800   -0.0160282700    0.0001076700
  -0.0000024800   -0.0160360100    0.0001032000
   0.0000006900   -0.0159981700    0.0000999600
   0.0000022600   -0.0160013400    0.0000764300
   0.0000008700   -0.0159547600    0.0000818800
   0.0000002200   -0.0159769800    0.0000447400
   0.0000028600   -0.0160146200    0.0000629600
   0.0000054500   -0.0159823600    0.0000929300
   0.0000042500    0.0159820400   -0.0000020100
   0.0000143100    0.0160196400   -0.0000583100
   0.0000046900    0.0159944500    0.0000048600
  -0.0000027700    0.0159810200   -0.0000405000
  -0.0000163400    0.0159579300   -0.0000316600
  -0.0000067200    0.0159615600   -0.0000211300
  -0.0000017100    0.0159256300   -0.0000207300
   0.0000013300    0.0159323600   -0.0001286500
   0.0000023200    0.0159943800    0.0001319800
  -0.0000048600    0.0159909000    0.0001350500
   0.0000003500    0.0159916400    0.0000809700
  -0.0000006100    0.0159939300    0.0000587700
   0.0000009600    0.0159987600    0.0000402000
  -0.0000027400    0.0159644000    0.0000424600
   0.0000046700    0.0158740100    0.0000168600
  -0.0001847700    0.0158938700   -0.0000817200
   0.0000004400    0.0054812000    0.0000276900
  -0.0000025900    0.0055066600    0.0000136700
   0.0000013900    0.0054509200   -0.0000121400
   0.0000033500    0.0054773900    0.0000306800
   0.0000033700    0.0054438100    0.0000266200
   0.0000014700    0.0054663100    0.0000120800
  -0.0000002000    0.0054662500    0.0000507700
   0.0000007600    0.0054759600    0.0000037200
  -0.0000002300    0.0054412800   -0.0000174000
  -0.0000005200    0.0055009600    0.0000003300
  -0.0000001600    0.0054893100   -0.0000223300
  -0.0000004500    0.0054766700   -0.0000126100
   0.0000009500    0.0055249900   -0.0000255100
   0.0000020300    0.0055035800    0.0000273000
   0.0000028900    0.0054924200    0.0000134700
   0.0000034300    0.0055022300   -0.0000261800
   0.0000026600   -0.0054705100    0.0000410200
  -0.0000099700   -0.0054707500    0.0000558200
  -0.0000017100   -0.0054570000    0.0000186300
  -0.0000044800   -0.0054627300    0.0000392700
  -0.0000060900   -0.0054667600   -0.0000231100
   0.0000029300   -0.0054893900    0.0000251100
  -0.0000007900   -0.0053257900    0.0000088700
   0.0000710300   -0.0051519300   -0.0000185900
   0.0000332100   -0.0054003500   -0.0000551000
   0.0003963400   -0.0052778100   -0.0001114600
  -0.0000039700   -0.0055251900    0.0000059000
  -0.0000016600   -0.0055046600    0.0000101400
   0.0000011800   -0.0054983300    0.0000430800
  -0.0000017900   -0.0054835000    0.0000266400
   0.0000079500   -0.0054835500    0.0000144300
   0.0000161200   -0.0055220800    0.0000439600

1    
 -0.0046257503802354  -0.0058004478369895  -0.0067050159067758
   0.0652267800    0.3364208500    0.4104510600
  -0.0000139000   -0.0162955700   -0.0003227600
   0.0000695500   -0.0138256200   -0.0010971800
   0.0000013900   -0.0156388400   -0.0007904500
   0.0000034200   -0.0153903600   -0.0001376300
   0.0000019800   -0.0156197400   -0.0000219300
   0.0000673300   -0.0147761100   -0.0003180900
  -0.0000029500   -0.0162918800   -0.0003045500
   0.0017304400   -0.0513044400   -0.0155891200
   0.0000265600   -0.0149847900   -0.0005393800
   0.0000248200   -0.0157151200   -0.0000319300
   0.0000036700   -0.0152965600   -0.0001581200
  -0.0000033400   -0.0160002700   -0.0002627800
   0.0000029700   -0.0163018600   -0.0005650800
  -0.0003220500   -0.0155530200   -0.0026760200
  -0.0000104300   -0.0159847400   -0.0007201600
  -0.0003418500    0.0161082900    0.0001323200
   0.0000060400    0.0161344700   -0.0000341500
  -0.0000020800    0.0160095700    0.0000276100
   0.0000060800    0.0160420000    0.0000100700
  -0.0000049300    0.0160524800    0.0000043500
   0.0000045200    0.0160472800    0.0000431100
  -0.0000019100    0.0160366500    0.0000710300
  -0.0000055000    0.0160639200    0.0000187100
   0.0001285000    0.0160484200   -0.0002025900
   0.0000195500    0.0159650600   -0.0001561600
   0.0000004800    0.0159810700   -0.0000656800
   0.0000038300    0.0159666600   -0.0000764200
  -0.0000017500    0.0159914900   -0.0000702800
  -0.0000073500    0.0160087500   -0.0000506500
  -0.0000109400    0.0159130600   -0.0001738500
  -0.0000006200    0.0159804400   -0.0000608600
   0.0000381800    0.0053040300    0.0000070600
  -0.0269763800   -0.0380978900   -0.1061839800
   0.0000011700    0.0050449900    0.0006767700
  -0.0000803500    0.0047551000    0.0004806800
   0.0000012900    0.0055801400    0.0003259200
  -0.0000166800    0.0054747300    0.0004694900
  -0.0000056500    0.0052844800    0.0000149200
   0.0021270600    0.0095023100    0.0045796200
  -0.0016516200    0.0052236100    0.0084594600
   0.0000126200    0.0049695600    0.0005475300
   0.0000141500    0.0054891900    0.0002409500
   0.0000035800    0.0055319400    0.0004652500
   0.0000148800    0.0053336300    0.0001061700
   0.0000045200    0.0051835900    0.0001840100
  -0.0016463700   -0.0105270800   -0.0052175100
   0.0000091600    0.0052467900    0.0006412300
  -0.0002758800   -0.0055180100   -0.0001544300
   0.0000050100   -0.0054181200   -0.0000191100
   0.0000000100   -0.0054567100   -0.0000295700
  -0.0000041400   -0.0054610200   -0.0000554500
  -0.0000006900   -0.0054792700   -0.0000244400
  -0.0000066100   -0.0054625600   -0.0000614800
   0.0000229600   -0.0054008500   -0.0001311100
   0.0000049300   -0.0054769700   -0.0000351400
  -0.0000026900   -0.0054512000   -0.0000859500
  -0.0000121100   -0.0053878700    0.0000008900
  -0.0000013700   -0.0054339300   -0.0000536000
  -0.0000038400   -0.0054338600   -0.0000362400
  -0.0000002000   -0.0054132500   -0.0000151200
  -0.0000028700   -0.0054245100   -0.0000174000
  -0.0000572100   -0.0055272400    0.0001938600
   0.0000015000   -0.0054815300    0.0000332200
   0.0000178600   -0.0159984300   -0.0000014600
  -0.0000005600   -0.0159990600   -0.0000055300
  -0.0000025000   -0.0160213300    0.0000282500
  -0.0000038300   -0.0160336800    0.0000084100
   0.0000018200   -0.0160511500    0.0000014700
  -0.0000007100   -0.0160089100    0.0000090700
  -0.0000026200   -0.0160117700   -0.0000390400
  -0.0000009400   -0.0160192800   -0.0000322700
  -0.0000040700   -0.0159822200   -0.0001417500
  -0.0000012300   -0.0159801000   -0.0000935900
   0.0000003500   -0.0159906100   -0.0000947600
  -0.0000001100   -0.0159638000   -0.0001053600
   0.0000018800   -0.0159699900   -0.0000715700
  -0.0000006200   -0.0159979800   -0.0000989000
   0.0000016500   -0.0159794900   -0.0001016700
   0.0000033000   -0.0159811900   -0.0000658000
  -0.0003171900    0.0161380100    0.0001239800
  -0.0000006800    0.0161133100   -0.0000948200
   0.0000012900    0.0160325000    0.0000356700
  -0.0000028200    0.0160110500   -0.0000178100
   0.0000019300    0.0160313800    0.0000095700
  -0.0000064700    0.0160198900    0.0000561100
  -0.0000028200    0.0160486800    0.0000445500
   0.0000103300    0.0160612000    0.0000536100
  -0.0000942400    0.0158941800   -0.0002061400
  -0.0000163100    0.0160373000   -0.0001560500
   0.0000028500    0.0159884200   -0.0001079600
  -0.0000068800    0.0159922400   -0.0000463000
  -0.0000032000    0.0160310800   -0.0000954400
   0.0000069700    0.0159835200   -0.0000215300
   0.0000285900    0.0159238400   -0.0001155100
   0.0000042200    0.0160017400   -0.0000729000
  -0.0000027400    0.0054905800   -0.0000080300
  -0.0000019300    0.0054358100   -0.0000131400
  -0.0000025800    0.0054560100   -0.0000144600
   0.0000013000    0.0054820100   -0.0000333500
   0.0000002500    0.0054867900   -0.0000033400
   0.0000021900    0.0054316800   -0.0000099200
   0.0000045200    0.0054717000   -0.0000023600
   0.0000013100    0.0054714700    0.0000130900
   0.0000005200    0.0054486500   -0.0000148200
  -0.0000040300    0.0054236900   -0.0000020200
   0.0000004100    0.0054359200    0.0000062300
   0.0000010900    0.0054448200   -0.0000286700
   0.0000050700    0.0054378000    0.0000293600