phonopy:
  version: 2.7.0
  calculator: vasp
  frequency_unit_conversion_factor: 15.633302
  symmetry_tolerance: 1.00000e-03

physical_unit:
  atomic_mass: "AMU"

space_group:
  type: "Cmcm"
  number: 63
  Hall_symbol: "-C 2c 2"

supercell_matrix:
- [   1,   0,   0 ]
- [   0,   2,   0 ]
- [   0,   0,   4 ]

primitive_cell:
  lattice:
  - [    13.654547933973346,     0.000000000000000,     0.000000000000000 ] # a
  - [     0.000000000000000,     8.561042697753045,     0.000000000000000 ] # b
  - [     0.000000000000000,     0.000000000000000,     4.948059967108756 ] # c
  points:
  - symbol: C  # 1
    coordinates: [  0.000000000000000,  0.999620020685470,  0.000000000000000 ]
    mass: 12.010700
  - symbol: C  # 2
    coordinates: [  0.000000000000000,  0.249620020685470,  0.250000000000000 ]
    mass: 12.010700
  - symbol: C  # 3
    coordinates: [  0.250000000000000,  0.000379979314530,  0.000000000000000 ]
    mass: 12.010700
  - symbol: C  # 4
    coordinates: [  0.250000000000000,  0.250379979314530,  0.250000000000000 ]
    mass: 12.010700
  - symbol: C  # 5
    coordinates: [  0.000000000000000,  0.916190825127539,  0.250000000000000 ]
    mass: 12.010700
  - symbol: C  # 6
    coordinates: [  0.000000000000000,  0.166190825127539,  0.500000000000000 ]
    mass: 12.010700
  - symbol: C  # 7
    coordinates: [  0.250000000000000,  0.083809174872461,  0.250000000000000 ]
    mass: 12.010700
  - symbol: C  # 8
    coordinates: [  0.250000000000000,  0.333809174872454,  0.500000000000000 ]
    mass: 12.010700
  - symbol: C  # 9
    coordinates: [  0.500000000000000,  0.999620020685470,  0.000000000000000 ]
    mass: 12.010700
  - symbol: C  # 10
    coordinates: [  0.500000000000000,  0.249620020685470,  0.250000000000000 ]
    mass: 12.010700
  - symbol: C  # 11
    coordinates: [  0.750000000000000,  0.000379979314530,  0.000000000000000 ]
    mass: 12.010700
  - symbol: C  # 12
    coordinates: [  0.750000000000000,  0.250379979314530,  0.250000000000000 ]
    mass: 12.010700
  - symbol: C  # 13
    coordinates: [  0.500000000000000,  0.916190825127539,  0.250000000000000 ]
    mass: 12.010700
  - symbol: C  # 14
    coordinates: [  0.500000000000000,  0.166190825127539,  0.500000000000000 ]
    mass: 12.010700
  - symbol: C  # 15
    coordinates: [  0.750000000000000,  0.083809174872461,  0.250000000000000 ]
    mass: 12.010700
  - symbol: C  # 16
    coordinates: [  0.750000000000000,  0.333809174872454,  0.500000000000000 ]
    mass: 12.010700
  - symbol: C  # 17
    coordinates: [  0.000000000000000,  0.499620020685470,  0.000000000000000 ]
    mass: 12.010700
  - symbol: C  # 18
    coordinates: [  0.000000000000000,  0.749620020685471,  0.250000000000000 ]
    mass: 12.010700
  - symbol: C  # 19
    coordinates: [  0.250000000000000,  0.500379979314529,  0.000000000000000 ]
    mass: 12.010700
  - symbol: C  # 20
    coordinates: [  0.250000000000000,  0.750379979314529,  0.250000000000000 ]
    mass: 12.010700
  - symbol: C  # 21
    coordinates: [  0.000000000000000,  0.416190825127539,  0.250000000000000 ]
    mass: 12.010700
  - symbol: C  # 22
    coordinates: [  0.000000000000000,  0.666190825127539,  0.500000000000000 ]
    mass: 12.010700
  - symbol: C  # 23
    coordinates: [  0.250000000000000,  0.583809174872461,  0.250000000000000 ]
    mass: 12.010700
  - symbol: C  # 24
    coordinates: [  0.250000000000000,  0.833809174872461,  0.500000000000000 ]
    mass: 12.010700
  - symbol: C  # 25
    coordinates: [  0.500000000000000,  0.499620020685470,  0.000000000000000 ]
    mass: 12.010700
  - symbol: C  # 26
    coordinates: [  0.500000000000000,  0.749620020685471,  0.250000000000000 ]
    mass: 12.010700
  - symbol: C  # 27
    coordinates: [  0.750000000000000,  0.500379979314529,  0.000000000000000 ]
    mass: 12.010700
  - symbol: C  # 28
    coordinates: [  0.750000000000000,  0.750379979314529,  0.250000000000000 ]
    mass: 12.010700
  - symbol: C  # 29
    coordinates: [  0.500000000000000,  0.416190825127539,  0.250000000000000 ]
    mass: 12.010700
  - symbol: C  # 30
    coordinates: [  0.500000000000000,  0.666190825127539,  0.500000000000000 ]
    mass: 12.010700
  - symbol: C  # 31
    coordinates: [  0.750000000000000,  0.583809174872461,  0.250000000000000 ]
    mass: 12.010700
  - symbol: C  # 32
    coordinates: [  0.750000000000000,  0.833809174872461,  0.500000000000000 ]
    mass: 12.010700
  - symbol: C  # 33
    coordinates: [  0.000000000000000,  0.999620020685470,  0.500000000000000 ]
    mass: 12.010700
  - symbol: C  # 34
    coordinates: [  0.000000000000000,  0.249620020685470,  0.750000000000000 ]
    mass: 12.010700
  - symbol: C  # 35
    coordinates: [  0.250000000000000,  0.000379979314530,  0.500000000000000 ]
    mass: 12.010700
  - symbol: C  # 36
    coordinates: [  0.250000000000000,  0.250379979314530,  0.750000000000000 ]
    mass: 12.010700
  - symbol: C  # 37
    coordinates: [  0.000000000000000,  0.916190825127539,  0.750000000000000 ]
    mass: 12.010700
  - symbol: C  # 38
    coordinates: [  0.000000000000000,  0.166190825127539,  0.000000000000000 ]
    mass: 12.010700
  - symbol: C  # 39
    coordinates: [  0.250000000000000,  0.083809174872461,  0.750000000000000 ]
    mass: 12.010700
  - symbol: C  # 40
    coordinates: [  0.250000000000000,  0.333809174872454,  0.000000000000000 ]
    mass: 12.010700
  - symbol: C  # 41
    coordinates: [  0.500000000000000,  0.999620020685470,  0.500000000000000 ]
    mass: 12.010700
  - symbol: C  # 42
    coordinates: [  0.500000000000000,  0.249620020685470,  0.750000000000000 ]
    mass: 12.010700
  - symbol: C  # 43
    coordinates: [  0.750000000000000,  0.000379979314530,  0.500000000000000 ]
    mass: 12.010700
  - symbol: C  # 44
    coordinates: [  0.750000000000000,  0.250379979314530,  0.750000000000000 ]
    mass: 12.010700
  - symbol: C  # 45
    coordinates: [  0.500000000000000,  0.916190825127539,  0.750000000000000 ]
    mass: 12.010700
  - symbol: C  # 46
    coordinates: [  0.500000000000000,  0.166190825127539,  0.000000000000000 ]
    mass: 12.010700
  - symbol: C  # 47
    coordinates: [  0.750000000000000,  0.083809174872461,  0.750000000000000 ]
    mass: 12.010700
  - symbol: C  # 48
    coordinates: [  0.750000000000000,  0.333809174872454,  0.000000000000000 ]
    mass: 12.010700
  - symbol: C  # 49
    coordinates: [  0.000000000000000,  0.499620020685470,  0.500000000000000 ]
    mass: 12.010700
  - symbol: C  # 50
    coordinates: [  0.000000000000000,  0.749620020685471,  0.750000000000000 ]
    mass: 12.010700
  - symbol: C  # 51
    coordinates: [  0.250000000000000,  0.500379979314529,  0.500000000000000 ]
    mass: 12.010700
  - symbol: C  # 52
    coordinates: [  0.250000000000000,  0.750379979314529,  0.750000000000000 ]
    mass: 12.010700
  - symbol: C  # 53
    coordinates: [  0.000000000000000,  0.416190825127539,  0.750000000000000 ]
    mass: 12.010700
  - symbol: C  # 54
    coordinates: [  0.000000000000000,  0.666190825127539,  0.000000000000000 ]
    mass: 12.010700
  - symbol: C  # 55
    coordinates: [  0.250000000000000,  0.583809174872461,  0.750000000000000 ]
    mass: 12.010700
  - symbol: C  # 56
    coordinates: [  0.250000000000000,  0.833809174872461,  0.000000000000000 ]
    mass: 12.010700
  - symbol: C  # 57
    coordinates: [  0.500000000000000,  0.499620020685470,  0.500000000000000 ]
    mass: 12.010700
  - symbol: C  # 58
    coordinates: [  0.500000000000000,  0.749620020685471,  0.750000000000000 ]
    mass: 12.010700
  - symbol: C  # 59
    coordinates: [  0.750000000000000,  0.500379979314529,  0.500000000000000 ]
    mass: 12.010700
  - symbol: C  # 60
    coordinates: [  0.750000000000000,  0.750379979314529,  0.750000000000000 ]
    mass: 12.010700
  - symbol: C  # 61
    coordinates: [  0.500000000000000,  0.416190825127539,  0.750000000000000 ]
    mass: 12.010700
  - symbol: C  # 62
    coordinates: [  0.500000000000000,  0.666190825127539,  0.000000000000000 ]
    mass: 12.010700
  - symbol: C  # 63
    coordinates: [  0.750000000000000,  0.583809174872461,  0.750000000000000 ]
    mass: 12.010700
  - symbol: C  # 64
    coordinates: [  0.750000000000000,  0.833809174872461,  0.000000000000000 ]
    mass: 12.010700
  reciprocal_lattice: # without 2pi
  - [     0.073235672454006,     0.000000000000000,     0.000000000000000 ] # a*
  - [     0.000000000000000,     0.116808201442853,     0.000000000000000 ] # b*
  - [     0.000000000000000,     0.000000000000000,     0.202099410000546 ] # c*

unit_cell:
  lattice:
  - [    13.654547933973346,     0.000000000000000,     0.000000000000000 ] # a
  - [     0.000000000000000,     8.561042697753045,     0.000000000000000 ] # b
  - [     0.000000000000000,     0.000000000000000,     4.948059967108756 ] # c
  points:
  - symbol: C  # 1
    coordinates: [ -0.000000000000000, -0.000379979314530, -0.000000000000000 ]
    mass: 12.010700
    reduced_to: 1
  - symbol: C  # 2
    coordinates: [  0.000000000000000,  0.249620020685470,  0.250000000000000 ]
    mass: 12.010700
    reduced_to: 2
  - symbol: C  # 3
    coordinates: [  0.250000000000000,  0.000379979314530, -0.000000000000000 ]
    mass: 12.010700
    reduced_to: 3
  - symbol: C  # 4
    coordinates: [  0.250000000000000,  0.250379979314530,  0.250000000000000 ]
    mass: 12.010700
    reduced_to: 4
  - symbol: C  # 5
    coordinates: [ -0.000000000000000,  0.916190825127539,  0.250000000000000 ]
    mass: 12.010700
    reduced_to: 5
  - symbol: C  # 6
    coordinates: [ -0.000000000000000,  0.166190825127539,  0.500000000000000 ]
    mass: 12.010700
    reduced_to: 6
  - symbol: C  # 7
    coordinates: [  0.250000000000000,  0.083809174872461,  0.250000000000000 ]
    mass: 12.010700
    reduced_to: 7
  - symbol: C  # 8
    coordinates: [  0.250000000000000,  0.333809174872454,  0.500000000000000 ]
    mass: 12.010700
    reduced_to: 8
  - symbol: C  # 9
    coordinates: [  0.500000000000000, -0.000379979314530, -0.000000000000000 ]
    mass: 12.010700
    reduced_to: 9
  - symbol: C  # 10
    coordinates: [  0.500000000000000,  0.249620020685470,  0.250000000000000 ]
    mass: 12.010700
    reduced_to: 10
  - symbol: C  # 11
    coordinates: [  0.750000000000000,  0.000379979314530,  0.000000000000000 ]
    mass: 12.010700
    reduced_to: 11
  - symbol: C  # 12
    coordinates: [  0.750000000000000,  0.250379979314530,  0.250000000000000 ]
    mass: 12.010700
    reduced_to: 12
  - symbol: C  # 13
    coordinates: [  0.500000000000000,  0.916190825127539,  0.250000000000000 ]
    mass: 12.010700
    reduced_to: 13
  - symbol: C  # 14
    coordinates: [  0.500000000000000,  0.166190825127539,  0.500000000000000 ]
    mass: 12.010700
    reduced_to: 14
  - symbol: C  # 15
    coordinates: [  0.750000000000000,  0.083809174872461,  0.250000000000000 ]
    mass: 12.010700
    reduced_to: 15
  - symbol: C  # 16
    coordinates: [  0.750000000000000,  0.333809174872454,  0.500000000000000 ]
    mass: 12.010700
    reduced_to: 16
  - symbol: C  # 17
    coordinates: [  0.000000000000000,  0.499620020685470, -0.000000000000000 ]
    mass: 12.010700
    reduced_to: 17
  - symbol: C  # 18
    coordinates: [ -0.000000000000000,  0.749620020685471,  0.250000000000000 ]
    mass: 12.010700
    reduced_to: 18
  - symbol: C  # 19
    coordinates: [  0.250000000000000,  0.500379979314529, -0.000000000000000 ]
    mass: 12.010700
    reduced_to: 19
  - symbol: C  # 20
    coordinates: [  0.250000000000000,  0.750379979314529,  0.250000000000000 ]
    mass: 12.010700
    reduced_to: 20
  - symbol: C  # 21
    coordinates: [ -0.000000000000000,  0.416190825127539,  0.250000000000000 ]
    mass: 12.010700
    reduced_to: 21
  - symbol: C  # 22
    coordinates: [ -0.000000000000000,  0.666190825127539,  0.500000000000000 ]
    mass: 12.010700
    reduced_to: 22
  - symbol: C  # 23
    coordinates: [  0.250000000000000,  0.583809174872461,  0.250000000000000 ]
    mass: 12.010700
    reduced_to: 23
  - symbol: C  # 24
    coordinates: [  0.250000000000000,  0.833809174872461,  0.500000000000000 ]
    mass: 12.010700
    reduced_to: 24
  - symbol: C  # 25
    coordinates: [  0.500000000000000,  0.499620020685470,  0.000000000000000 ]
    mass: 12.010700
    reduced_to: 25
  - symbol: C  # 26
    coordinates: [  0.500000000000000,  0.749620020685471,  0.250000000000000 ]
    mass: 12.010700
    reduced_to: 26
  - symbol: C  # 27
    coordinates: [  0.750000000000000,  0.500379979314529,  0.000000000000000 ]
    mass: 12.010700
    reduced_to: 27
  - symbol: C  # 28
    coordinates: [  0.750000000000000,  0.750379979314529,  0.250000000000000 ]
    mass: 12.010700
    reduced_to: 28
  - symbol: C  # 29
    coordinates: [  0.500000000000000,  0.416190825127539,  0.250000000000000 ]
    mass: 12.010700
    reduced_to: 29
  - symbol: C  # 30
    coordinates: [  0.500000000000000,  0.666190825127539,  0.500000000000000 ]
    mass: 12.010700
    reduced_to: 30
  - symbol: C  # 31
    coordinates: [  0.750000000000000,  0.583809174872461,  0.250000000000000 ]
    mass: 12.010700
    reduced_to: 31
  - symbol: C  # 32
    coordinates: [  0.750000000000000,  0.833809174872461,  0.500000000000000 ]
    mass: 12.010700
    reduced_to: 32
  - symbol: C  # 33
    coordinates: [  0.000000000000000, -0.000379979314530,  0.500000000000000 ]
    mass: 12.010700
    reduced_to: 33
  - symbol: C  # 34
    coordinates: [  0.000000000000000,  0.249620020685470,  0.750000000000000 ]
    mass: 12.010700
    reduced_to: 34
  - symbol: C  # 35
    coordinates: [  0.250000000000000,  0.000379979314530,  0.500000000000000 ]
    mass: 12.010700
    reduced_to: 35
  - symbol: C  # 36
    coordinates: [  0.250000000000000,  0.250379979314530,  0.750000000000000 ]
    mass: 12.010700
    reduced_to: 36
  - symbol: C  # 37
    coordinates: [  0.000000000000000,  0.916190825127539,  0.750000000000000 ]
    mass: 12.010700
    reduced_to: 37
  - symbol: C  # 38
    coordinates: [ -0.000000000000000,  0.166190825127539, -0.000000000000000 ]
    mass: 12.010700
    reduced_to: 38
  - symbol: C  # 39
    coordinates: [  0.250000000000000,  0.083809174872461,  0.750000000000000 ]
    mass: 12.010700
    reduced_to: 39
  - symbol: C  # 40
    coordinates: [  0.250000000000000,  0.333809174872454, -0.000000000000000 ]
    mass: 12.010700
    reduced_to: 40
  - symbol: C  # 41
    coordinates: [  0.500000000000000, -0.000379979314530,  0.500000000000000 ]
    mass: 12.010700
    reduced_to: 41
  - symbol: C  # 42
    coordinates: [  0.500000000000000,  0.249620020685470,  0.750000000000000 ]
    mass: 12.010700
    reduced_to: 42
  - symbol: C  # 43
    coordinates: [  0.750000000000000,  0.000379979314530,  0.500000000000000 ]
    mass: 12.010700
    reduced_to: 43
  - symbol: C  # 44
    coordinates: [  0.750000000000000,  0.250379979314530,  0.750000000000000 ]
    mass: 12.010700
    reduced_to: 44
  - symbol: C  # 45
    coordinates: [  0.500000000000000,  0.916190825127539,  0.750000000000000 ]
    mass: 12.010700
    reduced_to: 45
  - symbol: C  # 46
    coordinates: [  0.500000000000000,  0.166190825127539,  0.000000000000000 ]
    mass: 12.010700
    reduced_to: 46
  - symbol: C  # 47
    coordinates: [  0.750000000000000,  0.083809174872461,  0.750000000000000 ]
    mass: 12.010700
    reduced_to: 47
  - symbol: C  # 48
    coordinates: [  0.750000000000000,  0.333809174872454, -0.000000000000000 ]
    mass: 12.010700
    reduced_to: 48
  - symbol: C  # 49
    coordinates: [ -0.000000000000000,  0.499620020685470,  0.500000000000000 ]
    mass: 12.010700
    reduced_to: 49
  - symbol: C  # 50
    coordinates: [  0.000000000000000,  0.749620020685471,  0.750000000000000 ]
    mass: 12.010700
    reduced_to: 50
  - symbol: C  # 51
    coordinates: [  0.250000000000000,  0.500379979314529,  0.500000000000000 ]
    mass: 12.010700
    reduced_to: 51
  - symbol: C  # 52
    coordinates: [  0.250000000000000,  0.750379979314529,  0.750000000000000 ]
    mass: 12.010700
    reduced_to: 52
  - symbol: C  # 53
    coordinates: [ -0.000000000000000,  0.416190825127539,  0.750000000000000 ]
    mass: 12.010700
    reduced_to: 53
  - symbol: C  # 54
    coordinates: [  0.000000000000000,  0.666190825127539,  0.000000000000000 ]
    mass: 12.010700
    reduced_to: 54
  - symbol: C  # 55
    coordinates: [  0.250000000000000,  0.583809174872461,  0.750000000000000 ]
    mass: 12.010700
    reduced_to: 55
  - symbol: C  # 56
    coordinates: [  0.250000000000000,  0.833809174872461,  0.000000000000000 ]
    mass: 12.010700
    reduced_to: 56
  - symbol: C  # 57
    coordinates: [  0.500000000000000,  0.499620020685470,  0.500000000000000 ]
    mass: 12.010700
    reduced_to: 57
  - symbol: C  # 58
    coordinates: [  0.500000000000000,  0.749620020685471,  0.750000000000000 ]
    mass: 12.010700
    reduced_to: 58
  - symbol: C  # 59
    coordinates: [  0.750000000000000,  0.500379979314529,  0.500000000000000 ]
    mass: 12.010700
    reduced_to: 59
  - symbol: C  # 60
    coordinates: [  0.750000000000000,  0.750379979314529,  0.750000000000000 ]
    mass: 12.010700
    reduced_to: 60
  - symbol: C  # 61
    coordinates: [  0.500000000000000,  0.416190825127539,  0.750000000000000 ]
    mass: 12.010700
    reduced_to: 61
  - symbol: C  # 62
    coordinates: [  0.500000000000000,  0.666190825127539,  0.000000000000000 ]
    mass: 12.010700
    reduced_to: 62
  - symbol: C  # 63
    coordinates: [  0.750000000000000,  0.583809174872461,  0.750000000000000 ]
    mass: 12.010700
    reduced_to: 63
  - symbol: C  # 64
    coordinates: [  0.750000000000000,  0.833809174872461,  0.000000000000000 ]
    mass: 12.010700
    reduced_to: 64

supercell:
  lattice:
  - [    13.654547933973346,     0.000000000000000,     0.000000000000000 ] # a
  - [     0.000000000000000,    17.122085395506090,     0.000000000000000 ] # b
  - [     0.000000000000000,     0.000000000000000,    19.792239868435022 ] # c
  points:
  - symbol: C  # 1
    coordinates: [  0.000000000000000,  0.999810010342735,  0.000000000000000 ]
    mass: 12.010700
    reduced_to: 1
  - symbol: C  # 2
    coordinates: [  0.000000000000000,  0.499810010342735,  0.000000000000000 ]
    mass: 12.010700
    reduced_to: 1
  - symbol: C  # 3
    coordinates: [  0.000000000000000,  0.999810010342735,  0.250000000000000 ]
    mass: 12.010700
    reduced_to: 1
  - symbol: C  # 4
    coordinates: [  0.000000000000000,  0.499810010342735,  0.250000000000000 ]
    mass: 12.010700
    reduced_to: 1
  - symbol: C  # 5
    coordinates: [  0.000000000000000,  0.999810010342735,  0.500000000000000 ]
    mass: 12.010700
    reduced_to: 1
  - symbol: C  # 6
    coordinates: [  0.000000000000000,  0.499810010342735,  0.500000000000000 ]
    mass: 12.010700
    reduced_to: 1
  - symbol: C  # 7
    coordinates: [  0.000000000000000,  0.999810010342735,  0.750000000000000 ]
    mass: 12.010700
    reduced_to: 1
  - symbol: C  # 8
    coordinates: [  0.000000000000000,  0.499810010342735,  0.750000000000000 ]
    mass: 12.010700
    reduced_to: 1
  - symbol: C  # 9
    coordinates: [  0.000000000000000,  0.124810010342735,  0.062500000000000 ]
    mass: 12.010700
    reduced_to: 9
  - symbol: C  # 10
    coordinates: [  0.000000000000000,  0.624810010342735,  0.062500000000000 ]
    mass: 12.010700
    reduced_to: 9
  - symbol: C  # 11
    coordinates: [  0.000000000000000,  0.124810010342735,  0.312500000000000 ]
    mass: 12.010700
    reduced_to: 9
  - symbol: C  # 12
    coordinates: [  0.000000000000000,  0.624810010342735,  0.312500000000000 ]
    mass: 12.010700
    reduced_to: 9
  - symbol: C  # 13
    coordinates: [  0.000000000000000,  0.124810010342735,  0.562500000000000 ]
    mass: 12.010700
    reduced_to: 9
  - symbol: C  # 14
    coordinates: [  0.000000000000000,  0.624810010342735,  0.562500000000000 ]
    mass: 12.010700
    reduced_to: 9
  - symbol: C  # 15
    coordinates: [  0.000000000000000,  0.124810010342735,  0.812500000000000 ]
    mass: 12.010700
    reduced_to: 9
  - symbol: C  # 16
    coordinates: [  0.000000000000000,  0.624810010342735,  0.812500000000000 ]
    mass: 12.010700
    reduced_to: 9
  - symbol: C  # 17
    coordinates: [  0.250000000000000,  0.000189989657265,  0.000000000000000 ]
    mass: 12.010700
    reduced_to: 17
  - symbol: C  # 18
    coordinates: [  0.250000000000000,  0.500189989657265,  0.000000000000000 ]
    mass: 12.010700
    reduced_to: 17
  - symbol: C  # 19
    coordinates: [  0.250000000000000,  0.000189989657265,  0.250000000000000 ]
    mass: 12.010700
    reduced_to: 17
  - symbol: C  # 20
    coordinates: [  0.250000000000000,  0.500189989657265,  0.250000000000000 ]
    mass: 12.010700
    reduced_to: 17
  - symbol: C  # 21
    coordinates: [  0.250000000000000,  0.000189989657265,  0.500000000000000 ]
    mass: 12.010700
    reduced_to: 17
  - symbol: C  # 22
    coordinates: [  0.250000000000000,  0.500189989657265,  0.500000000000000 ]
    mass: 12.010700
    reduced_to: 17
  - symbol: C  # 23
    coordinates: [  0.250000000000000,  0.000189989657265,  0.750000000000000 ]
    mass: 12.010700
    reduced_to: 17
  - symbol: C  # 24
    coordinates: [  0.250000000000000,  0.500189989657265,  0.750000000000000 ]
    mass: 12.010700
    reduced_to: 17
  - symbol: C  # 25
    coordinates: [  0.250000000000000,  0.125189989657265,  0.062500000000000 ]
    mass: 12.010700
    reduced_to: 25
  - symbol: C  # 26
    coordinates: [  0.250000000000000,  0.625189989657265,  0.062500000000000 ]
    mass: 12.010700
    reduced_to: 25
  - symbol: C  # 27
    coordinates: [  0.250000000000000,  0.125189989657265,  0.312500000000000 ]
    mass: 12.010700
    reduced_to: 25
  - symbol: C  # 28
    coordinates: [  0.250000000000000,  0.625189989657265,  0.312500000000000 ]
    mass: 12.010700
    reduced_to: 25
  - symbol: C  # 29
    coordinates: [  0.250000000000000,  0.125189989657265,  0.562500000000000 ]
    mass: 12.010700
    reduced_to: 25
  - symbol: C  # 30
    coordinates: [  0.250000000000000,  0.625189989657265,  0.562500000000000 ]
    mass: 12.010700
    reduced_to: 25
  - symbol: C  # 31
    coordinates: [  0.250000000000000,  0.125189989657265,  0.812500000000000 ]
    mass: 12.010700
    reduced_to: 25
  - symbol: C  # 32
    coordinates: [  0.250000000000000,  0.625189989657265,  0.812500000000000 ]
    mass: 12.010700
    reduced_to: 25
  - symbol: C  # 33
    coordinates: [  0.000000000000000,  0.458095412563770,  0.062500000000000 ]
    mass: 12.010700
    reduced_to: 33
  - symbol: C  # 34
    coordinates: [  0.000000000000000,  0.958095412563770,  0.062500000000000 ]
    mass: 12.010700
    reduced_to: 33
  - symbol: C  # 35
    coordinates: [  0.000000000000000,  0.458095412563770,  0.312500000000000 ]
    mass: 12.010700
    reduced_to: 33
  - symbol: C  # 36
    coordinates: [  0.000000000000000,  0.958095412563770,  0.312500000000000 ]
    mass: 12.010700
    reduced_to: 33
  - symbol: C  # 37
    coordinates: [  0.000000000000000,  0.458095412563770,  0.562500000000000 ]
    mass: 12.010700
    reduced_to: 33
  - symbol: C  # 38
    coordinates: [  0.000000000000000,  0.958095412563770,  0.562500000000000 ]
    mass: 12.010700
    reduced_to: 33
  - symbol: C  # 39
    coordinates: [  0.000000000000000,  0.458095412563770,  0.812500000000000 ]
    mass: 12.010700
    reduced_to: 33
  - symbol: C  # 40
    coordinates: [  0.000000000000000,  0.958095412563770,  0.812500000000000 ]
    mass: 12.010700
    reduced_to: 33
  - symbol: C  # 41
    coordinates: [  0.000000000000000,  0.083095412563769,  0.125000000000000 ]
    mass: 12.010700
    reduced_to: 41
  - symbol: C  # 42
    coordinates: [  0.000000000000000,  0.583095412563770,  0.125000000000000 ]
    mass: 12.010700
    reduced_to: 41
  - symbol: C  # 43
    coordinates: [  0.000000000000000,  0.083095412563769,  0.375000000000000 ]
    mass: 12.010700
    reduced_to: 41
  - symbol: C  # 44
    coordinates: [  0.000000000000000,  0.583095412563770,  0.375000000000000 ]
    mass: 12.010700
    reduced_to: 41
  - symbol: C  # 45
    coordinates: [  0.000000000000000,  0.083095412563769,  0.625000000000000 ]
    mass: 12.010700
    reduced_to: 41
  - symbol: C  # 46
    coordinates: [  0.000000000000000,  0.583095412563770,  0.625000000000000 ]
    mass: 12.010700
    reduced_to: 41
  - symbol: C  # 47
    coordinates: [  0.000000000000000,  0.083095412563769,  0.875000000000000 ]
    mass: 12.010700
    reduced_to: 41
  - symbol: C  # 48
    coordinates: [  0.000000000000000,  0.583095412563770,  0.875000000000000 ]
    mass: 12.010700
    reduced_to: 41
  - symbol: C  # 49
    coordinates: [  0.250000000000000,  0.041904587436230,  0.062500000000000 ]
    mass: 12.010700
    reduced_to: 49
  - symbol: C  # 50
    coordinates: [  0.250000000000000,  0.541904587436230,  0.062500000000000 ]
    mass: 12.010700
    reduced_to: 49
  - symbol: C  # 51
    coordinates: [  0.250000000000000,  0.041904587436230,  0.312500000000000 ]
    mass: 12.010700
    reduced_to: 49
  - symbol: C  # 52
    coordinates: [  0.250000000000000,  0.541904587436230,  0.312500000000000 ]
    mass: 12.010700
    reduced_to: 49
  - symbol: C  # 53
    coordinates: [  0.250000000000000,  0.041904587436230,  0.562500000000000 ]
    mass: 12.010700
    reduced_to: 49
  - symbol: C  # 54
    coordinates: [  0.250000000000000,  0.541904587436230,  0.562500000000000 ]
    mass: 12.010700
    reduced_to: 49
  - symbol: C  # 55
    coordinates: [  0.250000000000000,  0.041904587436230,  0.812500000000000 ]
    mass: 12.010700
    reduced_to: 49
  - symbol: C  # 56
    coordinates: [  0.250000000000000,  0.541904587436230,  0.812500000000000 ]
    mass: 12.010700
    reduced_to: 49
  - symbol: C  # 57
    coordinates: [  0.250000000000000,  0.166904587436227,  0.125000000000000 ]
    mass: 12.010700
    reduced_to: 57
  - symbol: C  # 58
    coordinates: [  0.250000000000000,  0.666904587436227,  0.125000000000000 ]
    mass: 12.010700
    reduced_to: 57
  - symbol: C  # 59
    coordinates: [  0.250000000000000,  0.166904587436227,  0.375000000000000 ]
    mass: 12.010700
    reduced_to: 57
  - symbol: C  # 60
    coordinates: [  0.250000000000000,  0.666904587436227,  0.375000000000000 ]
    mass: 12.010700
    reduced_to: 57
  - symbol: C  # 61
    coordinates: [  0.250000000000000,  0.166904587436227,  0.625000000000000 ]
    mass: 12.010700
    reduced_to: 57
  - symbol: C  # 62
    coordinates: [  0.250000000000000,  0.666904587436227,  0.625000000000000 ]
    mass: 12.010700
    reduced_to: 57
  - symbol: C  # 63
    coordinates: [  0.250000000000000,  0.166904587436227,  0.875000000000000 ]
    mass: 12.010700
    reduced_to: 57
  - symbol: C  # 64
    coordinates: [  0.250000000000000,  0.666904587436227,  0.875000000000000 ]
    mass: 12.010700
    reduced_to: 57
  - symbol: C  # 65
    coordinates: [  0.500000000000000,  0.999810010342735,  0.000000000000000 ]
    mass: 12.010700
    reduced_to: 65
  - symbol: C  # 66
    coordinates: [  0.500000000000000,  0.499810010342735,  0.000000000000000 ]
    mass: 12.010700
    reduced_to: 65
  - symbol: C  # 67
    coordinates: [  0.500000000000000,  0.999810010342735,  0.250000000000000 ]
    mass: 12.010700
    reduced_to: 65
  - symbol: C  # 68
    coordinates: [  0.500000000000000,  0.499810010342735,  0.250000000000000 ]
    mass: 12.010700
    reduced_to: 65
  - symbol: C  # 69
    coordinates: [  0.500000000000000,  0.999810010342735,  0.500000000000000 ]
    mass: 12.010700
    reduced_to: 65
  - symbol: C  # 70
    coordinates: [  0.500000000000000,  0.499810010342735,  0.500000000000000 ]
    mass: 12.010700
    reduced_to: 65
  - symbol: C  # 71
    coordinates: [  0.500000000000000,  0.999810010342735,  0.750000000000000 ]
    mass: 12.010700
    reduced_to: 65
  - symbol: C  # 72
    coordinates: [  0.500000000000000,  0.499810010342735,  0.750000000000000 ]
    mass: 12.010700
    reduced_to: 65
  - symbol: C  # 73
    coordinates: [  0.500000000000000,  0.124810010342735,  0.062500000000000 ]
    mass: 12.010700
    reduced_to: 73
  - symbol: C  # 74
    coordinates: [  0.500000000000000,  0.624810010342735,  0.062500000000000 ]
    mass: 12.010700
    reduced_to: 73
  - symbol: C  # 75
    coordinates: [  0.500000000000000,  0.124810010342735,  0.312500000000000 ]
    mass: 12.010700
    reduced_to: 73
  - symbol: C  # 76
    coordinates: [  0.500000000000000,  0.624810010342735,  0.312500000000000 ]
    mass: 12.010700
    reduced_to: 73
  - symbol: C  # 77
    coordinates: [  0.500000000000000,  0.124810010342735,  0.562500000000000 ]
    mass: 12.010700
    reduced_to: 73
  - symbol: C  # 78
    coordinates: [  0.500000000000000,  0.624810010342735,  0.562500000000000 ]
    mass: 12.010700
    reduced_to: 73
  - symbol: C  # 79
    coordinates: [  0.500000000000000,  0.124810010342735,  0.812500000000000 ]
    mass: 12.010700
    reduced_to: 73
  - symbol: C  # 80
    coordinates: [  0.500000000000000,  0.624810010342735,  0.812500000000000 ]
    mass: 12.010700
    reduced_to: 73
  - symbol: C  # 81
    coordinates: [  0.750000000000000,  0.000189989657265,  0.000000000000000 ]
    mass: 12.010700
    reduced_to: 81
  - symbol: C  # 82
    coordinates: [  0.750000000000000,  0.500189989657265,  0.000000000000000 ]
    mass: 12.010700
    reduced_to: 81
  - symbol: C  # 83
    coordinates: [  0.750000000000000,  0.000189989657265,  0.250000000000000 ]
    mass: 12.010700
    reduced_to: 81
  - symbol: C  # 84
    coordinates: [  0.750000000000000,  0.500189989657265,  0.250000000000000 ]
    mass: 12.010700
    reduced_to: 81
  - symbol: C  # 85
    coordinates: [  0.750000000000000,  0.000189989657265,  0.500000000000000 ]
    mass: 12.010700
    reduced_to: 81
  - symbol: C  # 86
    coordinates: [  0.750000000000000,  0.500189989657265,  0.500000000000000 ]
    mass: 12.010700
    reduced_to: 81
  - symbol: C  # 87
    coordinates: [  0.750000000000000,  0.000189989657265,  0.750000000000000 ]