512  
1    

1    
  0.0100000000000000   0.0000000000000000   0.0000000000000000
  -0.4463926700   -0.0000000000   -0.0000000000
   0.0007950200   -0.0000000000   -0.0000000000
   0.0000175200   -0.0000000000   -0.0000000000
   0.0007889800   -0.0000000000   -0.0000000000
   0.0004591300   -0.0000003700   -0.0000001000
   0.0003093600    0.0004860300   -0.0006859500
  -0.0000045100   -0.0000001000    0.0000215600
   0.0003020900   -0.0004794600   -0.0006833200
   0.0000500100   -0.0000000000   -0.0000000000
   0.0000158500   -0.0000000000   -0.0000000000
   0.0000221500   -0.0000000000   -0.0000000000
   0.0000160800   -0.0000000000   -0.0000000000
   0.0004591300    0.0000003700    0.0000001000
   0.0003093600   -0.0004860300    0.0006859500
  -0.0000045100    0.0000001000   -0.0000215600
   0.0003020900    0.0004794600    0.0006833200
   0.0004591300   -0.0000001000   -0.0000003700
   0.0003093600   -0.0006859500    0.0004860300
  -0.0000045100    0.0000215600   -0.0000001000
   0.0003020900   -0.0006833200   -0.0004794600
  -0.0014217000    0.0006835300    0.0006835300
   0.0000657800   -0.0000056700   -0.0000056700
   0.0000048900   -0.0000073700   -0.0000073700
   0.0000654900    0.0000054600    0.0000054600
   0.0000099800   -0.0000214700   -0.0000000900
  -0.0000021300    0.0000075400   -0.0000326500
   0.0000018400    0.0000000000    0.0000001000
  -0.0000021200    0.0000074300    0.0000327000
  -0.0014315500    0.0006856700   -0.0006856700
   0.0000651400    0.0000059700   -0.0000059700
   0.0000047500   -0.0000075300    0.0000075300
   0.0000649500   -0.0000058100    0.0000058100
   0.0000500100   -0.0000000000   -0.0000000000
   0.0000158500   -0.0000000000   -0.0000000000
   0.0000221500   -0.0000000000   -0.0000000000
   0.0000160800   -0.0000000000   -0.0000000000
   0.0000099800   -0.0000000900   -0.0000214700
  -0.0000021300   -0.0000326500    0.0000075400
   0.0000018400    0.0000001000    0.0000000000
  -0.0000021200    0.0000327000    0.0000074300
  -0.0001846500   -0.0000000000   -0.0000000000
  -0.0000000000   -0.0000000000   -0.0000000000
   0.0000021800   -0.0000000000   -0.0000000000
  -0.0000002600   -0.0000000000   -0.0000000000
   0.0000099800    0.0000000900    0.0000214700
  -0.0000021300    0.0000326500   -0.0000075400
   0.0000018400   -0.0000001000   -0.0000000000
  -0.0000021200   -0.0000327000   -0.0000074300
   0.0004591300    0.0000001000    0.0000003700
   0.0003093600    0.0006859500   -0.0004860300
  -0.0000045100   -0.0000215600    0.0000001000
   0.0003020900    0.0006833200    0.0004794600
  -0.0014315500   -0.0006856700    0.0006856700
   0.0000651400   -0.0000059700    0.0000059700
   0.0000047500    0.0000075300   -0.0000075300
   0.0000649500    0.0000058100   -0.0000058100
   0.0000099800    0.0000214700    0.0000000900
  -0.0000021300   -0.0000075400    0.0000326500
   0.0000018400   -0.0000000000   -0.0000001000
  -0.0000021200   -0.0000074300   -0.0000327000
  -0.0014217000   -0.0006835300   -0.0006835300
   0.0000657800    0.0000056700    0.0000056700
   0.0000048900    0.0000073700    0.0000073700
   0.0000654900   -0.0000054600   -0.0000054600
   0.0912017600    0.0212216900    0.0212216900
  -0.0006337100    0.0008389300    0.0008389300
   0.0000281400    0.0000048700    0.0000048700
  -0.0000379100    0.0000810900    0.0000810900
  -0.0012795400    0.0008409900   -0.0003107100
   0.0007488800    0.0010209800    0.0026711400
  -0.0000186400    0.0000009900   -0.0000303000
  -0.0001302300    0.0000191600   -0.0002266500
  -0.0000741800    0.0000049500   -0.0000147000
  -0.0000134400    0.0000008200   -0.0000014700
   0.0000208200    0.0000171500    0.0000261400
   0.0000113800    0.0000074300    0.0000081800
  -0.0001760700    0.0000813900   -0.0000020800
   0.0001173700    0.0000186800   -0.0000214900
  -0.0000314300    0.0000074200    0.0000456400
   0.0001224300    0.0000805100   -0.0002670300
  -0.0012795400   -0.0003107100    0.0008409900
   0.0007488800    0.0026711400    0.0010209800
  -0.0000186400   -0.0000303000    0.0000009900
  -0.0001302300   -0.0002266500    0.0000191600
   0.0032592400    0.0026672600    0.0026672600
  -0.0001251500    0.0000522800    0.0000522800
   0.0000114500    0.0000058600    0.0000058600
  -0.0000331700    0.0000336600    0.0000336600
  -0.0000293200   -0.0000300500   -0.0000013800
   0.0000217500    0.0000059000    0.0000465300
  -0.0000053000    0.0000087500    0.0000062900
  -0.0000157400    0.0000180700   -0.0000438900
  -0.0002162200   -0.0002277300   -0.0000220800
  -0.0000546800    0.0000331900    0.0001622200
   0.0000091200    0.0000180800    0.0000003900
  -0.0000145700    0.0000120100    0.0000019100
  -0.0000741800   -0.0000147000    0.0000049500
  -0.0000134400   -0.0000014700    0.0000008200
   0.0000208200    0.0000261400    0.0000171500
   0.0000113800    0.0000081800    0.0000074300
  -0.0000293200   -0.0000013800   -0.0000300500
   0.0000217500    0.0000465300    0.0000059000
  -0.0000053000    0.0000062900    0.0000087500
  -0.0000157400   -0.0000438900    0.0000180700
   0.0001241200    0.0000260000    0.0000260000
   0.0000050800    0.0000063600    0.0000063600
  -0.0000014900    0.0000024400    0.0000024400
   0.0000006300   -0.0000030300   -0.0000030300
  -0.0000188400    0.0000081600    0.0000454500
   0.0000094500   -0.0000439200    0.0000002300
  -0.0000012300   -0.0000030400   -0.0000024200
  -0.0000059800    0.0000129400   -0.0000062000
  -0.0001760700   -0.0000020800    0.0000813900
   0.0001173700   -0.0000214900    0.0000186800
  -0.0000314300    0.0000456400    0.0000074200
   0.0001224300   -0.0002670300    0.0000805100
  -0.0002162200   -0.0000220800   -0.0002277300
  -0.0000546800    0.0001622200    0.0000331900
   0.0000091200    0.0000003900    0.0000180800
  -0.0000145700    0.0000019100    0.0000120100
  -0.0000188400    0.0000454500    0.0000081600
   0.0000094500    0.0000002300   -0.0000439200
  -0.0000012300   -0.0000024200   -0.0000030400
  -0.0000059800   -0.0000062000    0.0000129400
   0.0005594800   -0.0002673300   -0.0002673300
  -0.0000347300    0.0000019700    0.0000019700
   0.0000003800   -0.0000062900   -0.0000062900
   0.0000022400    0.0000085800    0.0000085800
  -0.0137083100    0.0073177600    0.0073177600
  -0.0002736600    0.0002331100    0.0002331100
   0.0000083200    0.0000137000    0.0000137000
  -0.0002678000    0.0001387700    0.0001387700
   0.0000631000   -0.0000609100   -0.0000011200
  -0.0000158300    0.0000249500   -0.0000339200
  -0.0000116200   -0.0000109700    0.0000115000
  -0.0000156100    0.0000400400    0.0000950800
   0.0000635200   -0.0000610000    0.0000006800
  -0.0000156200    0.0000403000   -0.0000951400
  -0.0000117100   -0.0000109600   -0.0000113300
  -0.0000153700    0.0000248500    0.0000341100
  -0.0138069100    0.0074774900   -0.0074774900
  -0.0002775300    0.0001443600   -0.0001443600
   0.0000082600    0.0000138000   -0.0000138000
  -0.0002716300    0.0002344700   -0.0002344700
   0.0000631000   -0.0000011200   -0.0000609100
  -0.0000158300   -0.0000339200    0.0000249500
  -0.0000116200    0.0000115000   -0.0000109700
  -0.0000156100    0.0000950800    0.0000400400
  -0.0002571300    0.0000952600    0.0000952600
   0.0000061800   -0.0000123100   -0.0000123100
   0.0000019300    0.0000003100    0.0000003100
   0.0000062200    0.0000077100    0.0000077100
  -0.0002582000    0.0000954500   -0.0000954500
   0.0000060900    0.0000076800   -0.0000076800
   0.0000018700    0.0000001900   -0.0000001900
   0.0000062000   -0.0000124400    0.0000124400
   0.0000635200   -0.0000006800    0.0000610000
  -0.0000156200    0.0000951400   -0.0000403000
  -0.0000117100    0.0000113300    0.0000109600
  -0.0000153700   -0.0000341100   -0.0000248500
   0.0000635200    0.0000006800   -0.0000610000
  -0.0000156200   -0.0000951400    0.0000403000
  -0.0000117100   -0.0000113300   -0.0000109600
  -0.0000153700    0.0000341100    0.0000248500
  -0.0002582000   -0.0000954500    0.0000954500
   0.0000060900   -0.0000076800    0.0000076800
   0.0000018700   -0.0000001900    0.0000001900
   0.0000062000    0.0000124400   -0.0000124400
  -0.0002571300   -0.0000952600   -0.0000952600
   0.0000061800    0.0000123100    0.0000123100
   0.0000019300   -0.0000003100   -0.0000003100
   0.0000062200   -0.0000077100   -0.0000077100
   0.0000631000    0.0000011200    0.0000609100
  -0.0000158300    0.0000339200   -0.0000249500
  -0.0000116200   -0.0000115000    0.0000109700
  -0.0000156100   -0.0000950800   -0.0000400400
  -0.0138069100   -0.0074774900    0.0074774900
  -0.0002775300   -0.0001443600    0.0001443600
   0.0000082600   -0.0000138000    0.0000138000
  -0.0002716300   -0.0002344700    0.0002344700
   0.0000635200    0.0000610000   -0.0000006800
  -0.0000156200   -0.0000403000    0.0000951400
  -0.0000117100    0.0000109600    0.0000113300
  -0.0000153700   -0.0000248500   -0.0000341100
   0.0000631000    0.0000609100    0.0000011200
  -0.0000158300   -0.0000249500    0.0000339200
  -0.0000116200    0.0000109700   -0.0000115000
  -0.0000156100   -0.0000400400   -0.0000950800
  -0.0137083100   -0.0073177600   -0.0073177600
  -0.0002736600   -0.0002331100   -0.0002331100
   0.0000083200   -0.0000137000   -0.0000137000
  -0.0002678000   -0.0001387700   -0.0001387700
   0.0912017600   -0.0212216900   -0.0212216900
  -0.0006337100   -0.0008389300   -0.0008389300
   0.0000281400   -0.0000048700   -0.0000048700
  -0.0000379100   -0.0000810900   -0.0000810900
  -0.0001760700   -0.0000813900    0.0000020800
   0.0001173700   -0.0000186800    0.0000214900
  -0.0000314300   -0.0000074200   -0.0000456400
   0.0001224300   -0.0000805100    0.0002670300
  -0.0000741800   -0.0000049500    0.0000147000
  -0.0000134400   -0.0000008200    0.0000014700
   0.0000208200   -0.0000171500   -0.0000261400
   0.0000113800   -0.0000074300   -0.0000081800
  -0.0012795400   -0.0008409900    0.0003107100
   0.0007488800   -0.0010209800   -0.0026711400
  -0.0000186400   -0.0000009900    0.0000303000
  -0.0001302300   -0.0000191600    0.0002266500
  -0.0001760700    0.0000020800   -0.0000813900
   0.0001173700    0.0000214900   -0.0000186800
  -0.0000314300   -0.0000456400   -0.0000074200
   0.0001224300    0.0002670300   -0.0000805100
   0.0005594800    0.0002673300    0.0002673300
  -0.0000347300   -0.0000019700   -0.0000019700
   0.0000003800    0.0000062900    0.0000062900
   0.0000022400   -0.0000085800   -0.0000085800
  -0.0000188400   -0.0000454500   -0.0000081600
   0.0000094500   -0.0000002300    0.0000439200
  -0.0000012300    0.0000024200    0.0000030400
  -0.0000059800    0.0000062000   -0.0000129400
  -0.0002162200    0.0000220800    0.0002277300
  -0.0000546800   -0.0001622200   -0.0000331900
   0.0000091200   -0.0000003900   -0.0000180800
  -0.0000145700   -0.0000019100   -0.0000120100
  -0.0000741800    0.0000147000   -0.0000049500
  -0.0000134400    0.0000014700   -0.0000008200
   0.0000208200   -0.0000261400   -0.0000171500
   0.0000113800   -0.0000081800   -0.0000074300
  -0.0000188400   -0.0000081600   -0.0000454500
   0.0000094500    0.0000439200   -0.0000002300
  -0.0000012300    0.0000030400    0.0000024200
  -0.0000059800   -0.0000129400    0.0000062000
   0.0001241200   -0.0000260000   -0.0000260000
   0.0000050800   -0.0000063600   -0.0000063600
  -0.0000014900   -0.0000024400   -0.0000024400
   0.0000006300    0.0000030300    0.0000030300
  -0.0000293200    0.0000013800    0.0000300500
   0.0000217500   -0.0000465300   -0.0000059000
  -0.0000053000   -0.0000062900   -0.0000087500
  -0.0000157400    0.0000438900   -0.0000180700
  -0.0012795400    0.0003107100   -0.0008409900
   0.0007488800   -0.0026711400   -0.0010209800
  -0.0000186400    0.0000303000   -0.0000009900
  -0.0001302300    0.0002266500   -0.0000191600
  -0.0002162200    0.0002277300    0.0000220800
  -0.0000546800   -0.0000331900   -0.0001622200
   0.0000091200   -0.0000180800   -0.0000003900
  -0.0000145700   -0.0000120100   -0.0000019100
  -0.0000293200    0.0000300500    0.0000013800
   0.0000217500   -0.0000059000   -0.0000465300
  -0.0000053000   -0.0000087500   -0.0000062900
  -0.0000157400   -0.0000180700    0.0000438900
   0.0032592400   -0.0026672600   -0.0026672600
  -0.0001251500   -0.0000522800   -0.0000522800
   0.0000114500   -0.0000058600   -0.0000058600
  -0.0000331700   -0.0000336600   -0.0000336600
   0.0154482100   -0.0074197600    0.0160789200
   0.0000263000    0.0000614500   -0.0000364600
   0.0000264500    0.0000605400    0.0000357700
   0.0152437300   -0.0073769000   -0.0158149900
   0.0003913700   -0.0001433700   -0.0002960400
  -0.0000250800   -0.0000404200    0.0000767000
  -0.0000247800   -0.0000247400    0.0000017900
   0.0003895200   -0.0002353900    0.0002932300
   0.0000303800   -0.0000135900   -0.0000141000
  -0.0000098100    0.0000110100   -0.0000259600
  -0.0000097600    0.0000109400    0.0000261300
   0.0000304900   -0.0000137800    0.0000138700
   0.0003888900   -0.0002322700   -0.0002972900
  -0.0000253200   -0.0000250100   -0.0000020600
  -0.0000249300   -0.0000399600   -0.0000763500
   0.0003872300   -0.0001396800    0.0002946800
   0.0000851300    0.0000008300   -0.0000361500
   0.0000358900   -0.0000956300    0.0000641800
   0.0000351900   -0.0000950100   -0.0000635700
   0.0000856300    0.0000008100    0.0000361200
   0.0000500500   -0.0000952300   -0.0000019600
   0.0000044000   -0.0000077000   -0.0000028700
   0.0000043000    0.0000123800    0.0000029200
   0.0000496700    0.0000337900   -0.0000765400
  -0.0000043200   -0.0000114000   -0.0000260900
   0.0000022200   -0.0000002200   -0.0000050800
   0.0000020900   -0.0000002500    0.0000051900
  -0.0000045800   -0.0000113400    0.0000260100
   0.0000498300    0.0000341400    0.0000764700
   0.0000042600    0.0000124500   -0.0000029300
   0.0000042600   -0.0000076800    0.0000029500
   0.0000495400   -0.0000950500    0.0000018100
   0.0000851300   -0.0000008300    0.0000361500
   0.0000358900    0.0000956300   -0.0000641800
   0.0000351900    0.0000950100    0.0000635700
   0.0000856300   -0.0000008100   -0.0000361200
   0.0000498300   -0.0000341400   -0.0000764700
   0.0000042600   -0.0000124500    0.0000029300
   0.0000042600    0.0000076800   -0.0000029500
   0.0000495400    0.0000950500   -0.0000018100
  -0.0000043200    0.0000114000    0.0000260900
   0.0000022200    0.0000002200    0.0000050800
   0.0000020900    0.0000002500   -0.0000051900
  -0.0000045800    0.0000113400   -0.0000260100
   0.0000500500    0.0000952300    0.0000019600
   0.0000044000    0.0000077000    0.0000028700
   0.0000043000   -0.0000123800   -0.0000029200
   0.0000496700   -0.0000337900    0.0000765400
   0.0154482100    0.0074197600   -0.0160789200
   0.0000263000   -0.0000614500    0.0000364600
   0.0000264500   -0.0000605400   -0.0000357700
   0.0152437300    0.0073769000    0.0158149900
   0.0003888900    0.0002322700    0.0002972900
  -0.0000253200    0.0000250100    0.0000020600
  -0.0000249300    0.0000399600    0.0000763500
   0.0003872300    0.0001396800   -0.0002946800
   0.0000303800    0.0000135900    0.0000141000
  -0.0000098100   -0.0000110100    0.0000259600
  -0.0000097600   -0.0000109400   -0.0000261300
   0.0000304900    0.0000137800   -0.0000138700
   0.0003913700    0.0001433700    0.0002960400
  -0.0000250800    0.0000404200   -0.0000767000
  -0.0000247800    0.0000247400   -0.0000017900
   0.0003895200    0.0002353900   -0.0002932300
   0.0931856800   -0.0231676300    0.0231676300
  -0.0000394700   -0.0000821000    0.0000821000
   0.0000278300   -0.0000049700    0.0000049700
  -0.0006714500   -0.0008549000    0.0008549000
  -0.0013063200   -0.0008529000   -0.0003135200
  -0.0001307000   -0.0000181000   -0.0002288200
  -0.0000182300   -0.0000009100   -0.0000299200
   0.0007145100   -0.0009807800    0.0026691900
  -0.0000739000   -0.0000048200   -0.0000146800
   0.0000113100   -0.0000075100    0.0000080500
   0.0000205700   -0.0000168900    0.0000258600
  -0.0000136100   -0.0000010100   -0.0000014100
  -0.0001763800   -0.0000817500   -0.0000011600
   0.0001249000   -0.0000828400   -0.0002677400
  -0.0000313100   -0.0000075500    0.0000453700
   0.0001175400   -0.0000185500   -0.0000220800
  -0.0001763800    0.0000011600    0.0000817500
   0.0001249000    0.0002677400    0.0000828400
  -0.0000313100   -0.0000453700    0.0000075500
   0.0001175400    0.0000220800    0.0000185500
  -0.0002176400    0.0000214600   -0.0002277100
  -0.0000146000   -0.0000020500    0.0000121800
   0.0000092200   -0.0000003200    0.0000180700
  -0.0000556200   -0.0001622900    0.0000338700
  -0.0000191700   -0.0000454000    0.0000081000
  -0.0000059600    0.0000063400    0.0000130000
  -0.0000012400    0.0000024000   -0.0000029800
   0.0000094500   -0.0000004000   -0.0000437800
   0.0005626300    0.0002675300   -0.0002675300
   0.0000023300   -0.0000086000    0.0000086000
   0.0000003200    0.0000061900   -0.0000061900
  -0.0000346000   -0.0000019000    0.0000019000
  -0.0000739000    0.0000146800    0.0000048200
   0.0000113100   -0.0000080500    0.0000075100
   0.0000205700   -0.0000258600    0.0000168900
  -0.0000136100    0.0000014100    0.0000010100
  -0.0000294100    0.0000014700   -0.0000300100
  -0.0000157300    0.0000438100    0.0000181100
  -0.0000053200   -0.0000063100    0.0000086800
   0.0000216100   -0.0000466300    0.0000056600
   0.0001245400   -0.0000260800    0.0000260800
   0.0000007100    0.0000029900   -0.0000029900
  -0.0000015600   -0.0000023900    0.0000023900
   0.0000050500   -0.0000062900    0.0000062900
  -0.0000191700   -0.0000081000    0.0000454000
  -0.0000059600   -0.0000130000   -0.0000063400
  -0.0000012400    0.0000029800   -0.0000024000
   0.0000094500    0.0000437800    0.0000004000
  -0.0013063200    0.0003135200    0.0008529000
  -0.0001307000    0.0002288200    0.0000181000
  -0.0000182300    0.0000299200    0.0000009100
   0.0007145100   -0.0026691900    0.0009807800
   0.0032989100   -0.0026732900    0.0026732900
  -0.0000339300   -0.0000334200    0.0000334200
   0.0000112100   -0.0000056000    0.0000056000
  -0.0001248800   -0.0000523600    0.0000523600
  -0.0000294100    0.0000300100   -0.0000014700
  -0.0000157300   -0.0000181100   -0.0000438100
  -0.0000053200   -0.0000086800    0.0000063100
   0.0000216100   -0.0000056600    0.0000466300
  -0.0002176400    0.0002277100   -0.0000214600
  -0.0000146000   -0.0000121800    0.0000020500
   0.0000092200   -0.0000180700    0.0000003200
  -0.0000556200   -0.0000338700    0.0001622900
   0.0154482100    0.0160789200   -0.0074197600
   0.0000263000   -0.0000364600    0.0000614500
   0.0000264500    0.0000357700    0.0000605400
   0.0152437300   -0.0158149900   -0.0073769000
   0.0000851300   -0.0000361500    0.0000008300
   0.0000358900    0.0000641800   -0.0000956300
   0.0000351900   -0.0000635700   -0.0000950100
   0.0000856300    0.0000361200    0.0000008100
   0.0000851300    0.0000361500   -0.0000008300
   0.0000358900   -0.0000641800    0.0000956300
   0.0000351900    0.0000635700    0.0000950100
   0.0000856300   -0.0000361200   -0.0000008100
   0.0154482100   -0.0160789200    0.0074197600
   0.0000263000    0.0000364600   -0.0000614500
   0.0000264500   -0.0000357700   -0.0000605400
   0.0152437300    0.0158149900    0.0073769000
   0.0003913700   -0.0002960400   -0.0001433700
  -0.0000250800    0.0000767000   -0.0000404200
  -0.0000247800    0.0000017900   -0.0000247400
   0.0003895200    0.0002932300   -0.0002353900
   0.0000500500   -0.0000019600   -0.0000952300
   0.0000044000   -0.0000028700   -0.0000077000
   0.0000043000    0.0000029200    0.0000123800
   0.0000496700   -0.0000765400    0.0000337900
   0.0000498300   -0.0000764700   -0.0000341400
   0.0000042600    0.0000029300   -0.0000124500
   0.0000042600   -0.0000029500    0.0000076800
   0.0000495400   -0.0000018100    0.0000950500
   0.0003888900    0.0002972900    0.0002322700
  -0.0000253200    0.0000020600    0.0000250100
  -0.0000249300    0.0000763500    0.0000399600
   0.0003872300   -0.0002946800    0.0001396800
   0.0000303800   -0.0000141000   -0.0000135900
  -0.0000098100   -0.0000259600    0.0000110100
  -0.0000097600    0.0000261300    0.0000109400
   0.0000304900    0.0000138700   -0.0000137800
  -0.0000043200   -0.0000260900   -0.0000114000
   0.0000022200   -0.0000050800   -0.0000002200
   0.0000020900    0.0000051900   -0.0000002500
  -0.0000045800    0.0000260100   -0.0000113400
  -0.0000043200    0.0000260900    0.0000114000
   0.0000022200    0.0000050800    0.0000002200
   0.0000020900   -0.0000051900    0.0000002500
  -0.0000045800   -0.0000260100    0.0000113400
   0.0000303800    0.0000141000    0.0000135900
  -0.0000098100    0.0000259600   -0.0000110100
  -0.0000097600   -0.0000261300   -0.0000109400
   0.0000304900   -0.0000138700    0.0000137800
   0.0003888900   -0.0002972900   -0.0002322700
  -0.0000253200   -0.0000020600   -0.0000250100
  -0.0000249300   -0.0000763500   -0.0000399600
   0.0003872300    0.0002946800   -0.0001396800
   0.0000498300    0.0000764700    0.0000341400
   0.0000042600   -0.0000029300    0.0000124500
   0.0000042600    0.0000029500   -0.0000076800
   0.0000495400    0.0000018100   -0.0000950500
   0.0000500500    0.0000019600    0.0000952300
   0.0000044000    0.0000028700    0.0000077000
   0.0000043000   -0.0000029200   -0.0000123800
   0.0000496700    0.0000765400   -0.0000337900
   0.0003913700    0.0002960400    0.0001433700
  -0.0000250800   -0.0000767000    0.0000404200
  -0.0000247800   -0.0000017900    0.0000247400
   0.0003895200   -0.0002932300    0.0002353900
   0.0931856800    0.0231676300   -0.0231676300
  -0.0000394700    0.0000821000   -0.0000821000
   0.0000278300    0.0000049700   -0.0000049700
  -0.0006714500    0.0008549000   -0.0008549000
  -0.0001763800    0.0000817500    0.0000011600
   0.0001249000    0.0000828400    0.0002677400
  -0.0000313100    0.0000075500   -0.0000453700
   0.0001175400    0.0000185500    0.0000220800
  -0.0000739000    0.0000048200    0.0000146800
   0.0000113100    0.0000075100   -0.0000080500
   0.0000205700    0.0000168900   -0.0000258600
  -0.0000136100    0.0000010100    0.0000014100
  -0.0013063200    0.0008529000    0.0003135200
  -0.0001307000    0.0000181000    0.0002288200
  -0.0000182300    0.0000009100    0.0000299200
   0.0007145100    0.0009807800   -0.0026691900
  -0.0013063200   -0.0003135200   -0.0008529000
  -0.0001307000   -0.0002288200   -0.0000181000
  -0.0000182300   -0.0000299200   -0.0000009100
   0.0007145100    0.0026691900   -0.0009807800
  -0.0002176400   -0.0002277100    0.0000214600
  -0.0000146000    0.0000121800   -0.0000020500
   0.0000092200    0.0000180700   -0.0000003200
  -0.0000556200    0.0000338700   -0.0001622900
  -0.0000294100   -0.0000300100    0.0000014700
  -0.0000157300    0.0000181100    0.0000438100
  -0.0000053200    0.0000086800   -0.0000063100
   0.0000216100    0.0000056600   -0.0000466300
   0.0032989100    0.0026732900   -0.0026732900
  -0.0000339300    0.0000334200   -0.0000334200
   0.0000112100    0.0000056000   -0.0000056000
  -0.0001248800    0.0000523600   -0.0000523600
  -0.0000739000   -0.0000146800   -0.0000048200
   0.0000113100    0.0000080500   -0.0000075100
   0.0000205700    0.0000258600   -0.0000168900
  -0.0000136100   -0.0000014100   -0.0000010100
  -0.0000191700    0.0000081000   -0.0000454000
  -0.0000059600    0.0000130000    0.0000063400
  -0.0000012400   -0.0000029800    0.0000024000
   0.0000094500   -0.0000437800   -0.0000004000
   0.0001245400    0.0000260800   -0.0000260800
   0.0000007100   -0.0000029900    0.0000029900
  -0.0000015600    0.0000023900   -0.0000023900
   0.0000050500    0.0000062900   -0.0000062900
  -0.0000294100   -0.0000014700    0.0000300100
  -0.0000157300   -0.0000438100   -0.0000181100
  -0.0000053200    0.0000063100   -0.0000086800
   0.0000216100    0.0000466300   -0.0000056600
  -0.0001763800   -0.0000011600   -0.0000817500
   0.0001249000   -0.0002677400   -0.0000828400
  -0.0000313100    0.0000453700   -0.0000075500
   0.0001175400   -0.0000220800   -0.0000185500
   0.0005626300   -0.0002675300    0.0002675300
   0.0000023300    0.0000086000   -0.0000086000
   0.0000003200   -0.0000061900    0.0000061900
  -0.0000346000    0.0000019000   -0.0000019000
  -0.0000191700    0.0000454000   -0.0000081000
  -0.0000059600   -0.0000063400   -0.0000130000
  -0.0000012400   -0.0000024000    0.0000029800
   0.0000094500    0.0000004000    0.0000437800
  -0.0002176400   -0.0000214600    0.0002277100
  -0.0000146000    0.0000020500   -0.0000121800
   0.0000092200    0.0000003200   -0.0000180700
  -0.0000556200    0.0001622900   -0.0000338700