512  
1    

1    
  0.0100000000000000   0.0000000000000000   0.0000000000000000
  -0.0159811429    0.0000000130    0.0000000130
   0.0000174708    0.0000000128    0.0000000128
   0.0000001155    0.0000000128    0.0000000128
   0.0000171721    0.0000000128    0.0000000128
   0.0000037235   -0.0000000113    0.0000000129
   0.0000052050    0.0000054313   -0.0000032618
  -0.0000000579   -0.0000000125    0.0000000863
   0.0000051858   -0.0000054422   -0.0000032822
   0.0000002867    0.0000000001    0.0000000128
   0.0000000526    0.0000000001    0.0000000128
   0.0000000671    0.0000000001    0.0000000128
   0.0000000526    0.0000000001    0.0000000128
   0.0000037235   -0.0000000139    0.0000000126
   0.0000052050   -0.0000054566    0.0000032873
  -0.0000000579   -0.0000000127   -0.0000000608
   0.0000051858    0.0000054170    0.0000033077
   0.0000037235    0.0000000129   -0.0000000113
   0.0000052050   -0.0000032618    0.0000054313
  -0.0000000579    0.0000000863   -0.0000000125
   0.0000051858   -0.0000032822   -0.0000054422
  -0.0000051391    0.0000032577    0.0000032577
   0.0000000887   -0.0000002174   -0.0000002174
   0.0000000268   -0.0000000212   -0.0000000212
   0.0000000877    0.0000001931    0.0000001931
  -0.0000000181   -0.0000000731   -0.0000000126
   0.0000000008    0.0000000085   -0.0000001202
  -0.0000000010   -0.0000000010   -0.0000000126
   0.0000000010    0.0000000084    0.0000000949
  -0.0000051728    0.0000032872   -0.0000033124
   0.0000000874    0.0000001942   -0.0000002194
   0.0000000269   -0.0000000210   -0.0000000042
   0.0000000872   -0.0000002200    0.0000001947
   0.0000002867    0.0000000128    0.0000000001
   0.0000000526    0.0000000128    0.0000000001
   0.0000000671    0.0000000128    0.0000000001
   0.0000000526    0.0000000128    0.0000000001
  -0.0000000181   -0.0000000126   -0.0000000731
   0.0000000008   -0.0000001202    0.0000000085
  -0.0000000010   -0.0000000126   -0.0000000010
   0.0000000010    0.0000000949    0.0000000084
  -0.0000002749    0.0000000001    0.0000000001
  -0.0000000628    0.0000000001    0.0000000001
  -0.0000000119    0.0000000001    0.0000000001
  -0.0000000630    0.0000000001    0.0000000001
  -0.0000000181   -0.0000000126    0.0000000733
   0.0000000008    0.0000000949   -0.0000000083
  -0.0000000010   -0.0000000127    0.0000000011
   0.0000000010   -0.0000001201   -0.0000000083
   0.0000037235    0.0000000126   -0.0000000139
   0.0000052050    0.0000032873   -0.0000054566
  -0.0000000579   -0.0000000608   -0.0000000127
   0.0000051858    0.0000033077    0.0000054170
  -0.0000051728   -0.0000033124    0.0000032872
   0.0000000874   -0.0000002194    0.0000001942
   0.0000000269   -0.0000000042   -0.0000000210
   0.0000000872    0.0000001947   -0.0000002200
  -0.0000000181    0.0000000733   -0.0000000126
   0.0000000008   -0.0000000083    0.0000000949
  -0.0000000010    0.0000000011   -0.0000000127
   0.0000000010   -0.0000000083   -0.0000001201
  -0.0000051391   -0.0000032829   -0.0000032829
   0.0000000887    0.0000001922    0.0000001922
   0.0000000268   -0.0000000040   -0.0000000040
   0.0000000877   -0.0000002184   -0.0000002184
   0.0038345942    0.0029441237    0.0029441237
  -0.0000199949    0.0000103720    0.0000103720
  -0.0000000690    0.0000001052    0.0000001052
   0.0000001471    0.0000004478    0.0000004478
  -0.0000129054    0.0000104020   -0.0000060275
   0.0000138155    0.0000163298    0.0000230735
  -0.0000001107   -0.0000000660   -0.0000001551
  -0.0000011348    0.0000006381   -0.0000008505
  -0.0000003423    0.0000001189   -0.0000000344
  -0.0000001531   -0.0000000786   -0.0000000990
   0.0000000360    0.0000000311    0.0000000469
   0.0000000242    0.0000000019    0.0000000329
  -0.0000013419    0.0000004695   -0.0000000950
  -0.0000000857    0.0000006356    0.0000001631
  -0.0000000594    0.0000000144    0.0000000526
   0.0000005222    0.0000004175   -0.0000010749
  -0.0000129054   -0.0000060275    0.0000104020
   0.0000138155    0.0000230735    0.0000163298
  -0.0000001107   -0.0000001551   -0.0000000660
  -0.0000011348   -0.0000008505    0.0000006381
   0.0000152663    0.0000231120    0.0000231120
  -0.0000007273   -0.0000001873   -0.0000001873
  -0.0000000073    0.0000000108    0.0000000108
  -0.0000001447   -0.0000000410   -0.0000000410
  -0.0000000743   -0.0000001429   -0.0000000736
   0.0000000288   -0.0000000024    0.0000001862
  -0.0000000139    0.0000000171    0.0000000316
  -0.0000000749    0.0000000762   -0.0000000894
  -0.0000002855   -0.0000008266    0.0000001893
   0.0000002076   -0.0000000460    0.0000004866
  -0.0000000199    0.0000000888    0.0000000192
  -0.0000000104    0.0000000610   -0.0000000504
  -0.0000003423   -0.0000000344    0.0000001189
  -0.0000001531   -0.0000000990   -0.0000000786
   0.0000000360    0.0000000469    0.0000000311
   0.0000000242    0.0000000329    0.0000000019
  -0.0000000743   -0.0000000736   -0.0000001429
   0.0000000288    0.0000001862   -0.0000000024
  -0.0000000139    0.0000000316    0.0000000171
  -0.0000000749   -0.0000000894    0.0000000762
   0.0000002556    0.0000000594    0.0000000594
   0.0000000956    0.0000000187    0.0000000187
   0.0000000035    0.0000000074    0.0000000074
   0.0000000424   -0.0000000242   -0.0000000242
   0.0000000805    0.0000000584    0.0000000658
   0.0000001008   -0.0000000901    0.0000000076
  -0.0000000020   -0.0000000112   -0.0000000055
   0.0000000092    0.0000000708   -0.0000000103
  -0.0000013419   -0.0000000950    0.0000004695
  -0.0000000857    0.0000001631    0.0000006356
  -0.0000000594    0.0000000526    0.0000000144
   0.0000005222   -0.0000010749    0.0000004175
  -0.0000002855    0.0000001893   -0.0000008266
   0.0000002076    0.0000004866   -0.0000000460
  -0.0000000199    0.0000000192    0.0000000888
  -0.0000000104   -0.0000000504    0.0000000610
   0.0000000805    0.0000000658    0.0000000584
   0.0000001008    0.0000000076   -0.0000000901
  -0.0000000020   -0.0000000055   -0.0000000112
   0.0000000092   -0.0000000103    0.0000000708
   0.0000013849   -0.0000010436   -0.0000010436
  -0.0000000088   -0.0000000496   -0.0000000496
  -0.0000000070    0.0000000019    0.0000000019
  -0.0000000198    0.0000000575    0.0000000575
  -0.0001252308    0.0000804618    0.0000804618
  -0.0000005670    0.0000016531    0.0000016531
   0.0000000177    0.0000000415    0.0000000415
  -0.0000005622    0.0000012159    0.0000012159
   0.0000003272   -0.0000003423   -0.0000001283
  -0.0000000349   -0.0000000404   -0.0000002047
  -0.0000000145   -0.0000000335    0.0000000130
  -0.0000000357    0.0000001045    0.0000003092
   0.0000003288   -0.0000003438    0.0000001265
  -0.0000000361    0.0000001044   -0.0000003094
  -0.0000000144   -0.0000000335   -0.0000000135
  -0.0000000366   -0.0000000420    0.0000002051
  -0.0001262135    0.0000811907   -0.0000811785
  -0.0000005814    0.0000012468   -0.0000012346
   0.0000000176    0.0000000543   -0.0000000421
  -0.0000005770    0.0000016739   -0.0000016617
   0.0000003272   -0.0000001283   -0.0000003423
  -0.0000000349   -0.0000002047   -0.0000000404
  -0.0000000145    0.0000000130   -0.0000000335
  -0.0000000357    0.0000003092    0.0000001045
  -0.0000005214    0.0000002417    0.0000002417
  -0.0000000263   -0.0000000614   -0.0000000614
  -0.0000000017   -0.0000000131   -0.0000000131
  -0.0000000269    0.0000000219    0.0000000219
  -0.0000005241    0.0000002430   -0.0000002689
  -0.0000000268    0.0000000220   -0.0000000479
  -0.0000000016   -0.0000000131   -0.0000000128
  -0.0000000264   -0.0000000616    0.0000000357
   0.0000003288   -0.0000001143    0.0000003179
  -0.0000000361    0.0000003216   -0.0000001303
  -0.0000000144    0.0000000257    0.0000000076
  -0.0000000366   -0.0000001929    0.0000000162
   0.0000003288    0.0000001265   -0.0000003438
  -0.0000000361   -0.0000003094    0.0000001044
  -0.0000000144   -0.0000000135   -0.0000000335
  -0.0000000366    0.0000002051   -0.0000000420
  -0.0000005241   -0.0000002689    0.0000002430
  -0.0000000268   -0.0000000479    0.0000000220
  -0.0000000016   -0.0000000128   -0.0000000131
  -0.0000000264    0.0000000357   -0.0000000616
  -0.0000005214   -0.0000002676   -0.0000002676
  -0.0000000263    0.0000000356    0.0000000356
  -0.0000000017   -0.0000000128   -0.0000000128
  -0.0000000269   -0.0000000477   -0.0000000477
   0.0000003272    0.0000001404    0.0000003164
  -0.0000000349    0.0000002169    0.0000000145
  -0.0000000145   -0.0000000008    0.0000000076
  -0.0000000357   -0.0000002971   -0.0000001304
  -0.0001262135   -0.0000811785    0.0000811907
  -0.0000005814   -0.0000012346    0.0000012468
   0.0000000176   -0.0000000421    0.0000000543
  -0.0000005770   -0.0000016617    0.0000016739
   0.0000003288    0.0000003179   -0.0000001143
  -0.0000000361   -0.0000001303    0.0000003216
  -0.0000000144    0.0000000076    0.0000000257
  -0.0000000366    0.0000000162   -0.0000001929
   0.0000003272    0.0000003164    0.0000001404
  -0.0000000349    0.0000000145    0.0000002169
  -0.0000000145    0.0000000076   -0.0000000008
  -0.0000000357   -0.0000001304   -0.0000002971
  -0.0001252308   -0.0000804496   -0.0000804496
  -0.0000005669   -0.0000016410   -0.0000016410
   0.0000000177   -0.0000000293   -0.0000000293
  -0.0000005622   -0.0000012038   -0.0000012038
   0.0038345946   -0.0029441492   -0.0029441492
  -0.0000199949   -0.0000103972   -0.0000103972
  -0.0000000690   -0.0000001304   -0.0000001304
   0.0000001471   -0.0000004730   -0.0000004730
  -0.0000013419   -0.0000004440    0.0000000698
  -0.0000000857   -0.0000006100   -0.0000001883
  -0.0000000594    0.0000000112   -0.0000000778
   0.0000005222   -0.0000003919    0.0000010497
  -0.0000003423   -0.0000001060    0.0000000092
  -0.0000001531    0.0000000914    0.0000000738
   0.0000000360   -0.0000000182   -0.0000000721
   0.0000000242    0.0000000110   -0.0000000581
  -0.0000129054   -0.0000103892    0.0000060024
   0.0000138155   -0.0000163169   -0.0000230987
  -0.0000001107    0.0000000789    0.0000001299
  -0.0000011348   -0.0000006253    0.0000008253
  -0.0000013419    0.0000000698   -0.0000004440
  -0.0000000857   -0.0000001883   -0.0000006100
  -0.0000000594   -0.0000000778    0.0000000112
   0.0000005222    0.0000010497   -0.0000003919
   0.0000013849    0.0000010692    0.0000010692
  -0.0000000088    0.0000000751    0.0000000751
  -0.0000000070    0.0000000236    0.0000000236
  -0.0000000198   -0.0000000320   -0.0000000320
   0.0000000805   -0.0000000529   -0.0000000328
   0.0000001008    0.0000000053    0.0000001157
  -0.0000000020    0.0000000184    0.0000000367
   0.0000000092    0.0000000231   -0.0000000453
  -0.0000002855   -0.0000001764    0.0000008522
   0.0000002076   -0.0000004737    0.0000000715
  -0.0000000199   -0.0000000063   -0.0000000632
  -0.0000000104    0.0000000632   -0.0000000355
  -0.0000003423    0.0000000092   -0.0000001060
  -0.0000001531    0.0000000738    0.0000000914
   0.0000000360   -0.0000000721   -0.0000000182
   0.0000000242   -0.0000000581    0.0000000110
   0.0000000805   -0.0000000328   -0.0000000529
   0.0000001008    0.0000001157    0.0000000053
  -0.0000000020    0.0000000367    0.0000000184
   0.0000000092   -0.0000000453    0.0000000231
   0.0000002556   -0.0000000466   -0.0000000466
   0.0000000956   -0.0000000058   -0.0000000058
   0.0000000035    0.0000000055    0.0000000055
   0.0000000424    0.0000000370    0.0000000370
  -0.0000000743    0.0000000864    0.0000001558
   0.0000000288   -0.0000001734    0.0000000153
  -0.0000000139   -0.0000000187   -0.0000000042
  -0.0000000749    0.0000001023   -0.0000000633
  -0.0000129054    0.0000060024   -0.0000103892
   0.0000138155   -0.0000230987   -0.0000163169
  -0.0000001107    0.0000001299    0.0000000789
  -0.0000011348    0.0000008253   -0.0000006253
  -0.0000002855    0.0000008522   -0.0000001764
   0.0000002076    0.0000000715   -0.0000004737
  -0.0000000199   -0.0000000632   -0.0000000063
  -0.0000000104   -0.0000000355    0.0000000632
  -0.0000000743    0.0000001558    0.0000000864
   0.0000000288    0.0000000153   -0.0000001734
  -0.0000000139   -0.0000000042   -0.0000000187
  -0.0000000749   -0.0000000633    0.0000001023
   0.0000152663   -0.0000230991   -0.0000230991
  -0.0000007273    0.0000002002    0.0000002002
  -0.0000000073    0.0000000020    0.0000000020
  -0.0000001447    0.0000000539    0.0000000539
   0.0001729475   -0.0000808974    0.0001822706
  -0.0000000741    0.0000003420    0.0000000080
  -0.0000000742    0.0000003437   -0.0000000099
   0.0001712759   -0.0000807185   -0.0001801053
   0.0000012078   -0.0000012333   -0.0000006305
  -0.0000001864   -0.0000001297    0.0000000605
  -0.0000001874    0.0000000153    0.0000000800
   0.0000012094   -0.0000016743    0.0000006249
   0.0000001574   -0.0000000413   -0.0000001370
  -0.0000000161    0.0000000198   -0.0000000554
  -0.0000000162    0.0000000198    0.0000000551
   0.0000001701   -0.0000000416    0.0000001363
   0.0000011980   -0.0000016656   -0.0000006327
  -0.0000001874    0.0000000161   -0.0000000807
  -0.0000001871   -0.0000001304   -0.0000000611
   0.0000011999   -0.0000012422    0.0000006265
   0.0000006867    0.0000001400   -0.0000000034
   0.0000001737   -0.0000002412    0.0000002228
   0.0000001735   -0.0000002436   -0.0000002487
   0.0000007005    0.0000001409   -0.0000000213
  -0.0000000282   -0.0000003214   -0.0000000927
   0.0000000045   -0.0000000473   -0.0000000100
   0.0000000040    0.0000000361   -0.0000000168
  -0.0000000165    0.0000001921   -0.0000000735
  -0.0000001178   -0.0000000130   -0.0000000682
  -0.0000000243   -0.0000000009   -0.0000000401
  -0.0000000243   -0.0000000010    0.0000000143
  -0.0000001054   -0.0000000129    0.0000000423
  -0.0000000286    0.0000001928    0.0000000478
   0.0000000039    0.0000000361   -0.0000000093
   0.0000000046   -0.0000000475   -0.0000000159
  -0.0000000171   -0.0000003221    0.0000000676
   0.0000006867   -0.0000001144   -0.0000000225
   0.0000001737    0.0000002668   -0.0000002487
   0.0000001735    0.0000002691    0.0000002228
   0.0000007005   -0.0000001154   -0.0000000046
  -0.0000000286   -0.0000002180   -0.0000000737
   0.0000000039   -0.0000000613   -0.0000000166
   0.0000000046    0.0000000223   -0.0000000100
  -0.0000000171    0.0000002969   -0.0000000935
  -0.0000001178    0.0000000132    0.0000000423
  -0.0000000243    0.0000000011    0.0000000142
  -0.0000000243    0.0000000011   -0.0000000401
  -0.0000001054    0.0000000131   -0.0000000681
  -0.0000000282    0.0000002961    0.0000000668
   0.0000000045    0.0000000221   -0.0000000159
   0.0000000040   -0.0000000613   -0.0000000091
  -0.0000000165   -0.0000002174    0.0000000476
   0.0001729475    0.0000809229   -0.0001822585
  -0.0000000741   -0.0000003164    0.0000000042
  -0.0000000742   -0.0000003182    0.0000000220
   0.0001712759    0.0000807440    0.0001801175
   0.0000011980    0.0000016404    0.0000006448
  -0.0000001874   -0.0000000414    0.0000000929
  -0.0000001871    0.0000001052    0.0000000733
   0.0000011999    0.0000012170   -0.0000006143
   0.0000001574    0.0000000415    0.0000001491
  -0.0000000161   -0.0000000197    0.0000000676
  -0.0000000162   -0.0000000197   -0.0000000429
   0.0000001701    0.0000000418   -0.0000001241
   0.0000012078    0.0000012080    0.0000006427
  -0.0000001864    0.0000001044   -0.0000000484
  -0.0000001874   -0.0000000405   -0.0000000679
   0.0000012094    0.0000016491   -0.0000006127
   0.0036893706   -0.0028288100    0.0028287849
   0.0000001447   -0.0000004687    0.0000004435
  -0.0000000563   -0.0000001312    0.0000001060
  -0.0000199826   -0.0000103973    0.0000103721
  -0.0000129394   -0.0000103676   -0.0000060355
  -0.0000011301   -0.0000006104   -0.0000008488
  -0.0000000983    0.0000000918   -0.0000001561
   0.0000135896   -0.0000160161    0.0000231481
  -0.0000003413   -0.0000001180   -0.0000000340
   0.0000000238   -0.0000000018    0.0000000328
   0.0000000488   -0.0000000309    0.0000000477
  -0.0000001665    0.0000000793   -0.0000000993
  -0.0000013424   -0.0000004473   -0.0000000950
   0.0000005265   -0.0000003966   -0.0000010663
  -0.0000000469    0.0000000112    0.0000000525
  -0.0000000984   -0.0000006134    0.0000001644
  -0.0000013424    0.0000000698    0.0000004729
   0.0000005265    0.0000010411    0.0000004222
  -0.0000000469   -0.0000000777    0.0000000144
  -0.0000000984   -0.0000001896    0.0000006390
  -0.0000002859   -0.0000001638   -0.0000008229
  -0.0000000107    0.0000000752    0.0000000604
  -0.0000000073    0.0000000065    0.0000000893
   0.0000001900   -0.0000004586   -0.0000000392
   0.0000000802   -0.0000000656    0.0000000582
   0.0000000092    0.0000000105    0.0000000708
   0.0000000107    0.0000000057   -0.0000000112
   0.0000000881   -0.0000000070   -0.0000000895
   0.0000013956    0.0000010718   -0.0000010462
  -0.0000000195   -0.0000000326    0.0000000582
   0.0000000056    0.0000000237    0.0000000019
  -0.0000000213    0.0000000756   -0.0000000501
  -0.0000003413    0.0000000088    0.0000001308
   0.0000000238   -0.0000000580    0.0000000147
   0.0000000488   -0.0000000729    0.0000000438
  -0.0000001665    0.0000000741   -0.0000000664
  -0.0000000747    0.0000000997   -0.0000001309
  -0.0000000743    0.0000001151    0.0000000884
  -0.0000000012   -0.0000000061    0.0000000298
   0.0000000163   -0.0000001612    0.0000000103
   0.0000002564   -0.0000000596    0.0000000724
   0.0000000424    0.0000000244   -0.0000000115
   0.0000000162   -0.0000000072    0.0000000201
   0.0000000829   -0.0000000185    0.0000000314
   0.0000000802   -0.0000000326    0.0000000785
   0.0000000092   -0.0000000452    0.0000000024
   0.0000000107    0.0000000367    0.0000000072
   0.0000000881    0.0000001150    0.0000000199
  -0.0000129394    0.0000060103    0.0000103805
  -0.0000011301    0.0000008237    0.0000006232
  -0.0000000983    0.0000001309   -0.0000000789
   0.0000135896   -0.0000231732    0.0000160290
   0.0000154850   -0.0000231359    0.0000231487
  -0.0000001451    0.0000000694   -0.0000000565
   0.0000000055    0.0000000145   -0.0000000016
  -0.0000007434    0.0000002118   -0.0000001989
  -0.0000000747    0.0000001438   -0.0000000868
  -0.0000000743   -0.0000000755   -0.0000001022
  -0.0000000012   -0.0000000170    0.0000000190
   0.0000000163    0.0000000025    0.0000001740
  -0.0000002859    0.0000008485    0.0000001767
  -0.0000000107   -0.0000000348   -0.0000000624
  -0.0000000073   -0.0000000637    0.0000000064
   0.0000001900    0.0000000648    0.0000004715
   0.0001729475    0.0001822706   -0.0000808974
  -0.0000000741    0.0000000080    0.0000003420
  -0.0000000742   -0.0000000099    0.0000003437
   0.0001712759   -0.0001801053   -0.0000807185
   0.0000006867   -0.0000000034    0.0000001400
   0.0000001737    0.0000002228   -0.0000002412
   0.0000001735   -0.0000002487   -0.0000002436
   0.0000007005   -0.0000000213    0.0000001409
   0.0000006867   -0.0000000225   -0.0000001144
   0.0000001737   -0.0000002487    0.0000002668
   0.0000001735    0.0000002228    0.0000002691
   0.0000007005   -0.0000000046   -0.0000001154
   0.0001729475   -0.0001822585    0.0000809229
  -0.0000000741    0.0000000042   -0.0000003164
  -0.0000000742    0.0000000220   -0.0000003182
   0.0001712759    0.0001801175    0.0000807440
   0.0000012078   -0.0000006305   -0.0000012333
  -0.0000001864    0.0000000605   -0.0000001297
  -0.0000001874    0.0000000800    0.0000000153
   0.0000012094    0.0000006249   -0.0000016743
  -0.0000000282   -0.0000000927   -0.0000003214
   0.0000000045   -0.0000000100   -0.0000000473
   0.0000000040   -0.0000000168    0.0000000361
  -0.0000000165   -0.0000000735    0.0000001921
  -0.0000000286   -0.0000000737   -0.0000002180
   0.0000000039   -0.0000000166   -0.0000000613
   0.0000000046   -0.0000000100    0.0000000223
  -0.0000000171   -0.0000000935    0.0000002969
   0.0000011980    0.0000006448    0.0000016404
  -0.0000001874    0.0000000929   -0.0000000414
  -0.0000001871    0.0000000733    0.0000001052
   0.0000011999   -0.0000006143    0.0000012170
   0.0000001574   -0.0000001370   -0.0000000413
  -0.0000000161   -0.0000000554    0.0000000198
  -0.0000000162    0.0000000551    0.0000000198
   0.0000001701    0.0000001363   -0.0000000416
  -0.0000001178   -0.0000000682   -0.0000000130
  -0.0000000243   -0.0000000401   -0.0000000009
  -0.0000000243    0.0000000143   -0.0000000010
  -0.0000001054    0.0000000423   -0.0000000129
  -0.0000001178    0.0000000423    0.0000000132
  -0.0000000243    0.0000000142    0.0000000011
  -0.0000000243   -0.0000000401    0.0000000011
  -0.0000001054   -0.0000000681    0.0000000131
   0.0000001574    0.0000001491    0.0000000415
  -0.0000000161    0.0000000676   -0.0000000197
  -0.0000000162   -0.0000000429   -0.0000000197
   0.0000001701   -0.0000001241    0.0000000418
   0.0000011980   -0.0000006327   -0.0000016656
  -0.0000001874   -0.0000000807    0.0000000161
  -0.0000001871   -0.0000000611   -0.0000001304
   0.0000011999    0.0000006265   -0.0000012422
  -0.0000000286    0.0000000478    0.0000001928
   0.0000000039   -0.0000000093    0.0000000361
   0.0000000046   -0.0000000159   -0.0000000475
  -0.0000000171    0.0000000676   -0.0000003221
  -0.0000000282    0.0000000668    0.0000002961
   0.0000000045   -0.0000000159    0.0000000221
   0.0000000040   -0.0000000091   -0.0000000613
  -0.0000000165    0.0000000476   -0.0000002174
   0.0000012078    0.0000006427    0.0000012080
  -0.0000001864   -0.0000000484    0.0000001044
  -0.0000001874   -0.0000000679   -0.0000000405
   0.0000012094   -0.0000006127    0.0000016491
   0.0036893706    0.0028287849   -0.0028288100
   0.0000001447    0.0000004435   -0.0000004687
  -0.0000000563    0.0000001060   -0.0000001312
  -0.0000199826    0.0000103721   -0.0000103973
  -0.0000013424    0.0000004729    0.0000000698
   0.0000005265    0.0000004222    0.0000010411
  -0.0000000469    0.0000000144   -0.0000000777
  -0.0000000984    0.0000006390   -0.0000001896
  -0.0000003413    0.0000001308    0.0000000088
   0.0000000238    0.0000000147   -0.0000000580
   0.0000000488    0.0000000438   -0.0000000729
  -0.0000001665   -0.0000000664    0.0000000741
  -0.0000129394    0.0000103805    0.0000060103
  -0.0000011301    0.0000006232    0.0000008237
  -0.0000000983   -0.0000000789    0.0000001309
   0.0000135896    0.0000160290   -0.0000231732
  -0.0000129394   -0.0000060355   -0.0000103676
  -0.0000011301   -0.0000008488   -0.0000006104
  -0.0000000983   -0.0000001561    0.0000000918
   0.0000135896    0.0000231481   -0.0000160161
  -0.0000002859   -0.0000008229   -0.0000001638
  -0.0000000107    0.0000000604    0.0000000752
  -0.0000000073    0.0000000893    0.0000000065
   0.0000001900   -0.0000000392   -0.0000004586
  -0.0000000747   -0.0000001309    0.0000000997
  -0.0000000743    0.0000000884    0.0000001151
  -0.0000000012    0.0000000298   -0.0000000061
   0.0000000163    0.0000000103   -0.0000001612
   0.0000154850    0.0000231487   -0.0000231359
  -0.0000001451   -0.0000000565    0.0000000694
   0.0000000055   -0.0000000016    0.0000000145
  -0.0000007434   -0.0000001989    0.0000002118
  -0.0000003413   -0.0000000340   -0.0000001180
   0.0000000238    0.0000000328   -0.0000000018
   0.0000000488    0.0000000477   -0.0000000309
  -0.0000001665   -0.0000000993    0.0000000793
   0.0000000802    0.0000000582   -0.0000000656
   0.0000000092    0.0000000708    0.0000000105
   0.0000000107   -0.0000000112    0.0000000057
   0.0000000881   -0.0000000895   -0.0000000070
   0.0000002564    0.0000000724   -0.0000000596
   0.0000000424   -0.0000000115    0.0000000244
   0.0000000162    0.0000000201   -0.0000000072
   0.0000000829    0.0000000314   -0.0000000185
  -0.0000000747   -0.0000000868    0.0000001438
  -0.0000000743   -0.0000001022   -0.0000000755
  -0.0000000012    0.0000000190   -0.0000000170
   0.0000000163    0.0000001740    0.0000000025
  -0.0000013424   -0.0000000950   -0.0000004473
   0.0000005265   -0.0000010663   -0.0000003966
  -0.0000000469    0.0000000525    0.0000000112
  -0.0000000984    0.0000001644   -0.0000006134
   0.0000013956   -0.0000010462    0.0000010718
  -0.0000000195    0.0000000582   -0.0000000326
   0.0000000056    0.0000000019    0.0000000237
  -0.0000000213   -0.0000000501    0.0000000756
   0.0000000802    0.0000000785   -0.0000000326
   0.0000000092    0.0000000024   -0.0000000452
   0.0000000107    0.0000000072    0.0000000367
   0.0000000881    0.0000000199    0.0000001150
  -0.0000002859    0.0000001767    0.0000008485
  -0.0000000107   -0.0000000624   -0.0000000348
  -0.0000000073    0.0000000064   -0.0000000637
   0.0000001900    0.0000004715    0.0000000648