phonopy:
  version: 2.7.0
  calculator: dftbp
  frequency_unit_conversion_factor: 154.107943
  symmetry_tolerance: 1.00000e-03

physical_unit:
  atomic_mass: "AMU"

space_group:
  type: "Cmce"
  number: 64
  Hall_symbol: "-C 2bc 2"

supercell_matrix:
- [   2,   0,   0 ]
- [   0,   2,   0 ]
- [   0,   0,   2 ]

primitive_cell:
  lattice:
  - [    50.050880267530083,     0.000000000000000,     0.000000000000000 ] # a
  - [     0.000000000000000,    13.395976390511807,     0.000000000000000 ] # b
  - [     0.000000000000000,     0.000000000000000,    26.550937302295051 ] # c
  points:
  - symbol: C  # 1
    coordinates: [  0.027632587119566,  0.000000025904168,  0.999999991980488 ]
    mass: 12.010700
  - symbol: C  # 2
    coordinates: [  0.972367395523955,  0.999999977392670,  0.000000003785690 ]
    mass: 12.010700
  - symbol: C  # 3
    coordinates: [  0.972367385329809,  0.500000094514679,  0.500000026832450 ]
    mass: 12.010700
  - symbol: C  # 4
    coordinates: [  0.027632563767419,  0.499999915501055,  0.499999974021633 ]
    mass: 12.010700
  - symbol: C  # 5
    coordinates: [  0.527632587674581,  0.499999717584496,  0.000000089607492 ]
    mass: 12.010700
  - symbol: C  # 6
    coordinates: [  0.472367395712736,  0.500000261537635,  0.999999911470214 ]
    mass: 12.010700
  - symbol: C  # 7
    coordinates: [  0.472367397600541,  0.000000222492333,  0.500000075016982 ]
    mass: 12.010700
  - symbol: C  # 8
    coordinates: [  0.527632588052142,  0.999999744548592,  0.499999918292699 ]
    mass: 12.010700
  - symbol: C  # 9
    coordinates: [  0.054116449662789,  0.853888779126625,  0.050389057849023 ]
    mass: 12.010700
  - symbol: C  # 10
    coordinates: [  0.945883549808625,  0.146111248522445,  0.949610923638722 ]
    mass: 12.010700
  - symbol: C  # 11
    coordinates: [  0.945883535083747,  0.646111204368573,  0.550389036717579 ]
    mass: 12.010700
  - symbol: C  # 12
    coordinates: [  0.054116440261521,  0.353888875193038,  0.449610971182692 ]
    mass: 12.010700
  - symbol: C  # 13
    coordinates: [  0.945883534706186,  0.353888676853278,  0.449610902286640 ]
    mass: 12.010700
  - symbol: C  # 14
    coordinates: [  0.054116438411472,  0.646111247393912,  0.550389084048028 ]
    mass: 12.010700
  - symbol: C  # 15
    coordinates: [  0.054116445585131,  0.146111189838704,  0.949610962784206 ]
    mass: 12.010700
  - symbol: C  # 16
    coordinates: [  0.945883548298381,  0.853888760505823,  0.050389056518076 ]
    mass: 12.010700
  - symbol: C  # 17
    coordinates: [  0.554116432257228,  0.353888946572781,  0.050388980604307 ]
    mass: 12.010700
  - symbol: C  # 18
    coordinates: [  0.445883551130089,  0.646111078537089,  0.949610986271497 ]
    mass: 12.010700
  - symbol: C  # 19
    coordinates: [  0.445883548864723,  0.146111103646959,  0.550389030596648 ]
    mass: 12.010700
  - symbol: C  # 20
    coordinates: [  0.554116433767472,  0.853888942905047,  0.449611014954460 ]
    mass: 12.010700
  - symbol: C  # 21
    coordinates: [  0.445883543956430,  0.853888650614875,  0.449610870899079 ]
    mass: 12.010700
  - symbol: C  # 22
    coordinates: [  0.554116459064058,  0.146111359682994,  0.550389112944512 ]
    mass: 12.010700
  - symbol: C  # 23
    coordinates: [  0.554116456043570,  0.646111375482462,  0.949610882358030 ]
    mass: 12.010700
  - symbol: C  # 24
    coordinates: [  0.445883539048137,  0.353888626915671,  0.050389129584902 ]
    mass: 12.010700
  - symbol: C  # 25
    coordinates: [  0.027326256083974,  0.698277403837847,  0.088657390791665 ]
    mass: 12.010700
  - symbol: C  # 26
    coordinates: [  0.972673756439724,  0.301722557227748,  0.911342588781510 ]
    mass: 12.010700
  - symbol: C  # 27
    coordinates: [  0.972673755684602,  0.801722535785611,  0.588657375631687 ]
    mass: 12.010700
  - symbol: C  # 28
    coordinates: [  0.027326242521983,  0.198277696692286,  0.411342668424776 ]
    mass: 12.010700
  - symbol: C  # 29
    coordinates: [  0.972673765123627,  0.198277237943425,  0.411342538675290 ]
    mass: 12.010700
  - symbol: C  # 30
    coordinates: [  0.027326244066208,  0.801722558074147,  0.588657412001400 ]
    mass: 12.010700
  - symbol: C  # 31
    coordinates: [  0.027326263952345,  0.301722549328013,  0.911342628638730 ]
    mass: 12.010700
  - symbol: C  # 32
    coordinates: [  0.972673765501188,  0.698277495531193,  0.088657374635256 ]
    mass: 12.010700
  - symbol: C  # 33
    coordinates: [  0.527326250545154,  0.198277713620289,  0.088657284031254 ]
    mass: 12.010700
  - symbol: C  # 34
    coordinates: [  0.472673775884115,  0.801722133745558,  0.911342728993516 ]
    mass: 12.010700
  - symbol: C  # 35
    coordinates: [  0.472673787588506,  0.301722126551157,  0.588657276344504 ]
    mass: 12.010700
  - symbol: C  # 36
    coordinates: [  0.527326265270033,  0.698277631801611,  0.411342688709254 ]
    mass: 12.010700
  - symbol: C  # 37
    coordinates: [  0.472673730199235,  0.698277238789825,  0.411342507785944 ]
    mass: 12.010700
  - symbol: C  # 38
    coordinates: [  0.527326246769544,  0.301722921320863,  0.588657500612541 ]
    mass: 12.010700
  - symbol: C  # 39
    coordinates: [  0.527326253188081,  0.801722934722198,  0.911342494120612 ]
    mass: 12.010700
  - symbol: C  # 40
    coordinates: [  0.472673730199235,  0.198277165153015,  0.088657502391882 ]
    mass: 12.010700
  - symbol: C  # 41
    coordinates: [  0.053031811631871,  0.541610215928837,  0.133605912401819 ]
    mass: 12.010700
  - symbol: C  # 42
    coordinates: [  0.946968261765985,  0.458389888319443,  0.866393974574493 ]
    mass: 12.010700
  - symbol: C  # 43
    coordinates: [  0.946968271582571,  0.958390200217885,  0.633606015176508 ]
    mass: 12.010700
  - symbol: C  # 44
    coordinates: [  0.053031782672943,  0.041609705521356,  0.366393875429658 ]
    mass: 12.010700
  - symbol: C  # 45
    coordinates: [  0.946968227407935,  0.041610469171751,  0.366394128665353 ]
    mass: 12.010700
  - symbol: C  # 46
    coordinates: [  0.053031817295286,  0.958389645966878,  0.633605966209066 ]
    mass: 12.010700
  - symbol: C  # 47
    coordinates: [  0.053031796076358,  0.458389964495453,  0.866394065676710 ]
    mass: 12.010700
  - symbol: C  # 48
    coordinates: [  0.946968264786473,  0.541609911365863,  0.133606033325778 ]
    mass: 12.010700
  - symbol: C  # 49
    coordinates: [  0.553031702554501,  0.041609189513527,  0.133606126847898 ]
    mass: 12.010700
  - symbol: C  # 50
    coordinates: [  0.446968328783061,  0.958391049439332,  0.866393714079090 ]
    mass: 12.010700
  - symbol: C  # 51
    coordinates: [  0.446968325007451,  0.458391017699328,  0.633606291116584 ]
    mass: 12.010700
  - symbol: C  # 52
    coordinates: [  0.553031723697917,  0.541609394497528,  0.366393932083849 ]
    mass: 12.010700
  - symbol: C  # 53
    coordinates: [  0.446968211361593,  0.541610760023043,  0.366394104039285 ]
    mass: 12.010700
  - symbol: C  # 54
    coordinates: [  0.553031896620850,  0.458388843438504,  0.633605675607227 ]
    mass: 12.010700
  - symbol: C  # 55
    coordinates: [  0.553031886804264,  0.958388808736099,  0.866394325460377 ]
    mass: 12.010700
  - symbol: C  # 56
    coordinates: [  0.446968178136226,  0.041610952691922,  0.133605825498844 ]
    mass: 12.010700
  - symbol: C  # 57
    coordinates: [  0.027013534972106,  0.395485256429894,  0.173176964699533 ]
    mass: 12.010700
  - symbol: C  # 58
    coordinates: [  0.972986534004512,  0.604514617033289,  0.826823016083593 ]
    mass: 12.010700
  - symbol: C  # 59
    coordinates: [  0.972986524943048,  0.104514486292685,  0.673176900999155 ]
    mass: 12.010700
  - symbol: C  # 60
    coordinates: [  0.027013661319115,  0.895486041748132,  0.326823170886189 ]
    mass: 12.010700
  - symbol: C  # 61
    coordinates: [  0.972986641609394,  0.895484803323700,  0.326822874376940 ]
    mass: 12.010700
  - symbol: C  # 62
    coordinates: [  0.027013551818877,  0.104514688102685,  0.673177031318030 ]
    mass: 12.010700
  - symbol: C  # 63
    coordinates: [  0.027013570825297,  0.604514561453015,  0.826823095798033 ]
    mass: 12.010700
  - symbol: C  # 64
    coordinates: [  0.972986509085486,  0.395485530381397,  0.173176909824682 ]
    mass: 12.010700
  - symbol: C  # 65
    coordinates: [  0.527013657985252,  0.895486278458030,  0.173176643421869 ]
    mass: 12.010700
  - symbol: C  # 66
    coordinates: [  0.472986363913286,  0.104513421902223,  0.826823378357255 ]
    mass: 12.010700
  - symbol: C  # 67
    coordinates: [  0.472986381658652,  0.604513461132868,  0.673176639080279 ]
    mass: 12.010700
  - symbol: C  # 68
    coordinates: [  0.527013649301349,  0.395486073206003,  0.326823298927508 ]
    mass: 12.010700
  - symbol: C  # 69
    coordinates: [  0.472986593092806,  0.395484760298361,  0.326822818505658 ]
    mass: 12.010700
  - symbol: C  # 70
    coordinates: [  0.527013388406705,  0.604515772651577,  0.673177262988122 ]
    mass: 12.010700
  - symbol: C  # 71
    coordinates: [  0.527013383120851,  0.104515795419740,  0.826822724983538 ]
    mass: 12.010700
  - symbol: C  # 72
    coordinates: [  0.472986611215734,  0.895484533463131,  0.173177231600561 ]
    mass: 12.010700
  - symbol: C  # 73
    coordinates: [  0.109550927512872,  0.866017724345707,  0.073912145502517 ]
    mass: 12.010700
  - symbol: C  # 74
    coordinates: [  0.890449064029761,  0.133982378139240,  0.926087836419386 ]
    mass: 12.010700
  - symbol: C  # 75
    coordinates: [  0.890449049304883,  0.633982384980974,  0.573912164007655 ]
    mass: 12.010700
  - symbol: C  # 76
    coordinates: [  0.109550921509653,  0.366017786132916,  0.426087892504189 ]
    mass: 12.010700
  - symbol: C  # 77
    coordinates: [  0.890449059121469,  0.366017568467020,  0.426087806739992 ]
    mass: 12.010700
  - symbol: C  # 78
    coordinates: [  0.109550912221652,  0.633982271845492,  0.573912138669851 ]
    mass: 12.010700
  - symbol: C  # 79
    coordinates: [  0.109550926417946,  0.133982268234185,  0.926087863465357 ]
    mass: 12.010700
  - symbol: C  # 80
    coordinates: [  0.890449064784884,  0.866017623906227,  0.073912155537996 ]
    mass: 12.010700
  - symbol: C  # 81
    coordinates: [  0.609550927097555,  0.366017729706241,  0.073912133830046 ]
    mass: 12.010700
  - symbol: C  # 82
    coordinates: [  0.390449060065371,  0.633982283836161,  0.926087844248483 ]
    mass: 12.010700
  - symbol: C  # 83
    coordinates: [  0.390449061953176,  0.133982283596347,  0.573912160947190 ]
    mass: 12.010700
  - symbol: C  # 84
    coordinates: [  0.609550928985360,  0.866017734502509,  0.426087862753621 ]
    mass: 12.010700
  - symbol: C  # 85
    coordinates: [  0.390449065728786,  0.866017632088095,  0.426087825885692 ]
    mass: 12.010700
  - symbol: C  # 86
    coordinates: [  0.609550924832189,  0.133982338682888,  0.573912161231885 ]
    mass: 12.010700
  - symbol: C  # 87
    coordinates: [  0.609550922944385,  0.633982348726836,  0.926087840689803 ]
    mass: 12.010700
  - symbol: C  # 88
    coordinates: [  0.390449064973664,  0.366017628843561,  0.073912172121447 ]
    mass: 12.010700
  - symbol: C  # 89
    coordinates: [  0.144994490862239,  0.744603114264833,  0.030947950224163 ]
    mass: 12.010700
  - symbol: C  # 90
    coordinates: [  0.855005491014833,  0.255396922835705,  0.969052055718834 ]
    mass: 12.010700
  - symbol: C  # 91
    coordinates: [  0.855005478555321,  0.755396991111981,  0.530947988266456 ]
    mass: 12.010700
  - symbol: C  # 92
    coordinates: [  0.144994487237654,  0.244603235017916,  0.469052144258801 ]
    mass: 12.010700
  - symbol: C  # 93
    coordinates: [  0.855005491769955,  0.244602960925346,  0.469051983904664 ]
    mass: 12.010700
  - symbol: C  # 94
    coordinates: [  0.144994476175117,  0.755396820844491,  0.530947891968565 ]
    mass: 12.010700
  - symbol: C  # 95
    coordinates: [  0.144994488030532,  0.255396883195966,  0.969052057854042 ]
    mass: 12.010700
  - symbol: C  # 96
    coordinates: [  0.855005491014833,  0.744603067007494,  0.030947943711777 ]
    mass: 12.010700
  - symbol: C  # 97
    coordinates: [  0.644994496714435,  0.244603165189907,  0.030947920580355 ]
    mass: 12.010700
  - symbol: C  # 98
    coordinates: [  0.355005487314736,  0.755396892083168,  0.969052043619320 ]
    mass: 12.010700
  - symbol: C  # 99
    coordinates: [  0.355005490146443,  0.255396899277569,  0.530947958587061 ]
    mass: 12.010700
  - symbol: C  # 100
    coordinates: [  0.644994496336874,  0.744603165613107,  0.469052070167076 ]
    mass: 12.010700
  - symbol: C  # 101
    coordinates: [  0.355005499434443,  0.744603043872557,  0.469052028245821 ]
    mass: 12.010700
  - symbol: C  # 102
    coordinates: [  0.644994490295898,  0.255396913948504,  0.530947959583492 ]
    mass: 12.010700
  - symbol: C  # 103
    coordinates: [  0.644994488030532,  0.755396914794904,  0.969052049313209 ]
    mass: 12.010700
  - symbol: C  # 104
    coordinates: [  0.355005497810931,  0.244603041897624,  0.030947974757705 ]
    mass: 12.010700
  - symbol: C  # 105
    coordinates: [  0.194773103426358,  0.739490479946436,  0.063136199111970 ]
    mass: 12.010700
  - symbol: C  # 106
    coordinates: [  0.805226875279202,  0.260509512859163,  0.936863817378955 ]
    mass: 12.010700
  - symbol: C  # 107
    coordinates: [  0.805226867727982,  0.760509587483440,  0.563136237424723 ]
    mass: 12.010700
  - symbol: C  # 108
    coordinates: [  0.194773093987334,  0.239490561765113,  0.436863900580902 ]
    mass: 12.010700
  - symbol: C  # 109
    coordinates: [  0.805226871126031,  0.239490384726423,  0.436863743927792 ]
    mass: 12.010700
  - symbol: C  # 110
    coordinates: [  0.194773091608699,  0.760509464191157,  0.563136128600277 ]
    mass: 12.010700
  - symbol: C  # 111
    coordinates: [  0.194773097611919,  0.260509529646099,  0.936863808126385 ]
    mass: 12.010700
  - symbol: C  # 112
    coordinates: [  0.805226877544568,  0.739490477266169,  0.063136189368303 ]
    mass: 12.010700
  - symbol: C  # 113
    coordinates: [  0.694773096214943,  0.239490512956040,  0.063136171489493 ]
    mass: 12.010700
  - symbol: C  # 114
    coordinates: [  0.305226885775397,  0.760509516244764,  0.936863798162081 ]
    mass: 12.010700
  - symbol: C  # 115
    coordinates: [  0.305226886719300,  0.260509515257297,  0.563136195788163 ]
    mass: 12.010700
  - symbol: C  # 116
    coordinates: [  0.694773095837383,  0.739490498849372,  0.436863813891448 ]
    mass: 12.010700
  - symbol: C  # 117
    coordinates: [  0.305226876713934,  0.739490460197100,  0.436863798233254 ]
    mass: 12.010700
  - symbol: C  # 118
    coordinates: [  0.694773112072505,  0.260509527247965,  0.563136215787946 ]
    mass: 12.010700
  - symbol: C  # 119
    coordinates: [  0.694773111694944,  0.760509515398364,  0.936863801009025 ]
    mass: 12.010700
  - symbol: C  # 120
    coordinates: [  0.305226874486324,  0.239490456247233,  0.063136215702538 ]
    mass: 12.010700
  - symbol: C  # 121
    coordinates: [  0.210707303340016,  0.858945856729068,  0.136416911536379 ]
    mass: 12.010700
  - symbol: C  # 122
    coordinates: [  0.789292680160569,  0.141054171978003,  0.863583084691420 ]
    mass: 12.010700
  - symbol: C  # 123
    coordinates: [  0.789292670721544,  0.641054178255470,  0.636416940504037 ]
    mass: 12.010700
  - symbol: C  # 124
    coordinates: [  0.210707298318455,  0.358945825412264,  0.363583140989743 ]
    mass: 12.010700
  - symbol: C  # 125
    coordinates: [  0.789292676007398,  0.358945810882395,  0.363583052307429 ]
    mass: 12.010700
  - symbol: C  # 126
    coordinates: [  0.210707292277479,  0.641054171343202,  0.636416874739624 ]
    mass: 12.010700
  - symbol: C  # 127
    coordinates: [  0.210707298884796,  0.141054151184773,  0.863583094655725 ]
    mass: 12.010700
  - symbol: C  # 128
    coordinates: [  0.789292683558618,  0.858945830913864,  0.136416916732052 ]
    mass: 12.010700
  - symbol: C  # 129
    coordinates: [  0.710707299262357,  0.358945859973602,  0.136416904276671 ]
    mass: 12.010700
  - symbol: C  # 130
    coordinates: [  0.289292679820764,  0.641054152158133,  0.863583076862323 ]
    mass: 12.010700
  - symbol: C  # 131
    coordinates: [  0.289292676384959,  0.141054140012292,  0.636416907265962 ]
    mass: 12.010700
  - symbol: C  # 132
    coordinates: [  0.710707296619430,  0.858945841211733,  0.363583076791149 ]
    mass: 12.010700
  - symbol: C  # 133
    coordinates: [  0.289292677177837,  0.858945845302666,  0.363583089602399 ]
    mass: 12.010700
  - symbol: C  # 134
    coordinates: [  0.710707300395040,  0.141054164402722,  0.636416934525454 ]
    mass: 12.010700
  - symbol: C  # 135
    coordinates: [  0.710707301905284,  0.641054146797599,  0.863583085403156 ]
    mass: 12.010700
  - symbol: C  # 136
    coordinates: [  0.289292681633057,  0.358945830631731,  0.136416931464989 ]
    mass: 12.010700
  - symbol: C  # 137
    coordinates: [  0.176213328948551,  0.983129211847250,  0.178296640074205 ]
    mass: 12.010700
  - symbol: C  # 138
    coordinates: [  0.823786661234863,  0.016870864780174,  0.821703342630609 ]
    mass: 12.010700
  - symbol: C  # 139
    coordinates: [  0.823786651795838,  0.516870822149822,  0.678296649611468 ]
    mass: 12.010700
  - symbol: C  # 140
    coordinates: [  0.176213322152454,  0.483129120859237,  0.321703360210490 ]
    mass: 12.010700
  - symbol: C  # 141
    coordinates: [  0.823786652550960,  0.483129172630711,  0.321703344481123 ]
    mass: 12.010700
  - symbol: C  # 142
    coordinates: [  0.176213318452356,  0.516870875896229,  0.678296649540294 ]
    mass: 12.010700
  - symbol: C  # 143
    coordinates: [  0.176213324606600,  0.016870794133978,  0.821703364694427 ]
    mass: 12.010700
  - symbol: C  # 144
    coordinates: [  0.823786667275839,  0.983129134119506,  0.178296658508169 ]
    mass: 12.010700
  - symbol: C  # 145
    coordinates: [  0.676213315167575,  0.483129161909643,  0.178296656942350 ]
    mass: 12.010700
  - symbol: C  # 146
    coordinates: [  0.323786662971643,  0.516870809594887,  0.821703342630609 ]
    mass: 12.010700
  - symbol: C  # 147
    coordinates: [  0.323786658176619,  0.016870796334618,  0.678296645768093 ]
    mass: 12.010700
  - symbol: C  # 148
    coordinates: [  0.676213314034892,  0.983129156125909,  0.321703332239262 ]
    mass: 12.010700
  - symbol: C  # 149
    coordinates: [  0.323786650512131,  0.983129202818982,  0.321703368680149 ]
    mass: 12.010700
  - symbol: C  # 150
    coordinates: [  0.676213325739283,  0.016870832574650,  0.678296664059710 ]
    mass: 12.010700
  - symbol: C  # 151
    coordinates: [  0.676213326871966,  0.516870828074622,  0.821703348324497 ]
    mass: 12.010700
  - symbol: C  # 152
    coordinates: [  0.323786655684716,  0.483129188006980,  0.178296647547433 ]
    mass: 12.010700
  - symbol: C  # 153
    coordinates: [  0.125894763468183,  0.984658476991525,  0.148450562523311 ]
    mass: 12.010700
  - symbol: C  # 154
    coordinates: [  0.874105227696890,  0.015341623335102,  0.851549416978690 ]
    mass: 12.010700
  - symbol: C  # 155
    coordinates: [  0.874105214859816,  0.515341574356749,  0.648450564373825 ]
    mass: 12.010700
  - symbol: C  # 156
    coordinates: [  0.125894759466037,  0.484658416756050,  0.351549427370037 ]
    mass: 12.010700
  - symbol: C  # 157
    coordinates: [  0.874105221655914,  0.484658406034982,  0.351549422814926 ]
    mass: 12.010700
  - symbol: C  # 158
    coordinates: [  0.125894750442329,  0.515341604262887,  0.648450587007032 ]
    mass: 12.010700
  - symbol: C  # 159
    coordinates: [  0.125894760258915,  0.015341525110369,  0.851549441177717 ]
    mass: 12.010700
  - symbol: C  # 160
    coordinates: [  0.874105231850061,  0.984658368511243,  0.148450580459060 ]
    mass: 12.010700
  - symbol: C  # 161
    coordinates: [  0.625894754368963,  0.484658415768583,  0.148450590992754 ]
    mass: 12.010700
  - symbol: C  # 162
    coordinates: [  0.374105221240597,  0.515341541911412,  0.851549417690426 ]
    mass: 12.010700
  - symbol: C  # 163
    coordinates: [  0.374105218106841,  0.015341538793838,  0.648450581811359 ]
    mass: 12.010700
  - symbol: C  # 164
    coordinates: [  0.625894754368963,  0.984658427194984,  0.351549406231475 ]
    mass: 12.010700
  - symbol: C  # 165
    coordinates: [  0.374105219919133,  0.984658449624587,  0.351549440181286 ]
    mass: 12.010700
  - symbol: C  # 166
    coordinates: [  0.625894756634329,  0.015341587941471,  0.648450577256248 ]
    mass: 12.010700
  - symbol: C  # 167
    coordinates: [  0.625894755501646,  0.515341597773819,  0.851549425519523 ]
    mass: 12.010700
  - symbol: C  # 168
    coordinates: [  0.374105224336597,  0.484658440878453,  0.148450561526880 ]
    mass: 12.010700
  - symbol: H  # 169
    coordinates: [  0.094273272595014,  0.539529145027121,  0.135192009766704 ]
    mass: 1.007940
  - symbol: H  # 170
    coordinates: [  0.905726781773769,  0.460471031447303,  0.864807845822046 ]
    mass: 1.007940
  - symbol: H  # 171
    coordinates: [  0.905726767426451,  0.960471200021992,  0.635192035531550 ]
    mass: 1.007940
  - symbol: H  # 172
    coordinates: [  0.094273338403894,  0.039529470679564,  0.364807973507498 ]
    mass: 1.007940
  - symbol: H  # 173
    coordinates: [  0.905726834254746,  0.039528690044740,  0.364807882832322 ]
    mass: 1.007940
  - symbol: H  # 174
    coordinates: [  0.094273273350136,  0.960470660724054,  0.635192093466867 ]
    mass: 1.007940
  - symbol: H  # 175
    coordinates: [  0.094273293021063,  0.460470838185944,  0.864808042261203 ]
    mass: 1.007940
  - symbol: H  # 176
    coordinates: [  0.905726765916207,  0.539528970950831,  0.135192086064812 ]
    mass: 1.007940
  - symbol: H  # 177
    coordinates: [  0.594273332438431,  0.039529169347017,  0.135191879376655 ]
    mass: 1.007940
  - symbol: H  # 178
    coordinates: [  0.405726682664009,  0.960470810395807,  0.864807972511067 ]
    mass: 1.007940
  - symbol: H  # 179
    coordinates: [  0.405726693613278,  0.460470814768874,  0.635192047061675 ]
    mass: 1.007940
  - symbol: H  # 180
    coordinates: [  0.594273330173065,  0.539529166328190,  0.364808126459580 ]
    mass: 1.007940
  - symbol: H  # 181
    coordinates: [  0.405726812544989,  0.539528975747098,  0.364807762762446 ]
    mass: 1.007940
  - symbol: H  # 182
    coordinates: [  0.594273193873548,  0.460471042732638,  0.635192059944098 ]
    mass: 1.007940
  - symbol: H  # 183
    coordinates: [  0.594273188210133,  0.960471056839307,  0.864807922689542 ]
    mass: 1.007940
  - symbol: H  # 184
    coordinates: [  0.405726817075721,  0.039528953388028,  0.135192221437013 ]
    mass: 1.007940
  - symbol: H  # 185
    coordinates: [  0.047076725032940,  0.277753283021202,  0.205852552501503 ]
    mass: 1.007940
  - symbol: H  # 186
    coordinates: [  0.952923348515941,  0.722246675646259,  0.794147375186111 ]
    mass: 1.007940
  - symbol: H  # 187
    coordinates: [  0.952923369281795,  0.222246889644421,  0.705852572145419 ]
    mass: 1.007940
  - symbol: H  # 188
    coordinates: [  0.047076844417725,  0.777753352990278,  0.294147317962531 ]
    mass: 1.007940
  - symbol: H  # 189
    coordinates: [  0.952923445549115,  0.777753258757732,  0.294147434402553 ]
    mass: 1.007940
  - symbol: H  # 190
    coordinates: [  0.047076768603479,  0.222246526256639,  0.705852649226436 ]
    mass: 1.007940
  - symbol: H  # 191
    coordinates: [  0.047076738323087,  0.722246782292673,  0.794147454900552 ]
    mass: 1.007940
  - symbol: H  # 192
    coordinates: [  0.952923328882769,  0.277753242535063,  0.205852595988577 ]
    mass: 1.007940
  - symbol: H  # 193
    coordinates: [  0.547076773625040,  0.777752997220097,  0.205852556558399 ]
    mass: 1.007940
  - symbol: H  # 194
    coordinates: [  0.452923240344717,  0.222246971745232,  0.794147338887572 ]
    mass: 1.007940
  - symbol: H  # 195
    coordinates: [  0.452923248273498,  0.722246958484963,  0.705852666094581 ]
    mass: 1.007940
  - symbol: H  # 196
    coordinates: [  0.547076768716747,  0.277753035167036,  0.294147458530406 ]
    mass: 1.007940
  - symbol: H  # 197
    coordinates: [  0.452923380042283,  0.277753487426829,  0.294147377819535 ]
    mass: 1.007940
  - symbol: H  # 198
    coordinates: [  0.547076656581133,  0.722246516381971,  0.705852501470027 ]
    mass: 1.007940
  - symbol: H  # 199
    coordinates: [  0.547076647519669,  0.222246500300369,  0.794147491199092 ]
    mass: 1.007940
  - symbol: H  # 200
    coordinates: [  0.452923379664722,  0.777753513806300,  0.205852597056182 ]
    mass: 1.007940
  - symbol: H  # 201
    coordinates: [  0.133459541060655,  0.655195097092372,  0.971583503072660 ]
    mass: 1.007940
  - symbol: H  # 202
    coordinates: [  0.866540423259832,  0.344804925337231,  0.028416521823868 ]
    mass: 1.007940
  - symbol: H  # 203
    coordinates: [  0.866540419861783,  0.844805047500980,  0.471583545776824 ]
    mass: 1.007940
  - symbol: H  # 204
    coordinates: [  0.133459529054215,  0.155195298535599,  0.528416620413549 ]
    mass: 1.007940
  - symbol: H  # 205
    coordinates: [  0.866540425902759,  0.155194900022213,  0.528416423333830 ]
    mass: 1.007940
  - symbol: H  # 206
    coordinates: [  0.133459526902118,  0.844804773549477,  0.471583420582449 ]
    mass: 1.007940
  - symbol: H  # 207
    coordinates: [  0.133459532074703,  0.344804897264960,  0.028416504457508 ]
    mass: 1.007940
  - symbol: H  # 208
    coordinates: [  0.866540427035442,  0.655195056324100,  0.971583483144050 ]
    mass: 1.007940
  - symbol: H  # 209
    coordinates: [  0.633459538417728,  0.155195177782517,  0.971583457521551 ]
    mass: 1.007940
  - symbol: H  # 210
    coordinates: [  0.366540445573686,  0.844804917719630,  0.028416490265490 ]
    mass: 1.007940
  - symbol: H  # 211
    coordinates: [  0.366540449726857,  0.344804929004964,  0.471583515385694 ]
    mass: 1.007940
  - symbol: H  # 212
    coordinates: [  0.633459537285045,  0.655195178346783,  0.528416534079963 ]
    mass: 1.007940
  - symbol: H  # 213
    coordinates: [  0.366540432812125,  0.655195012734495,  0.528416479276285 ]
    mass: 1.007940
  - symbol: H  # 214
    coordinates: [  0.633459559561143,  0.344804918283896,  0.471583501079799 ]
    mass: 1.007940
  - symbol: H  # 215
    coordinates: [  0.633459558050899,  0.844804919271363,  0.028416507816902 ]
    mass: 1.007940
  - symbol: H  # 216
    coordinates: [  0.366540427413002,  0.155195013157695,  0.971583522289534 ]
    mass: 1.007940
  - symbol: H  # 217
    coordinates: [  0.221253225144380,  0.639811406994531,  0.031398952613179 ]
    mass: 1.007940
  - symbol: H  # 218
    coordinates: [  0.778746740610839,  0.360188513867058,  0.968601084083933 ]
    mass: 1.007940
  - symbol: H  # 219
    coordinates: [  0.778746736457668,  0.860188647034010,  0.531399005665986 ]
    mass: 1.007940
  - symbol: H  # 220
    coordinates: [  0.221253217102331,  0.139811531753908,  0.468601184225199 ]
    mass: 1.007940
  - symbol: H  # 221
    coordinates: [  0.778746742121083,  0.139811336052095,  0.468600982234501 ]
    mass: 1.007940
  - symbol: H  # 222
    coordinates: [  0.221253213930818,  0.860188484525188,  0.531398844030723 ]
    mass: 1.007940
  - symbol: H  # 223
    coordinates: [  0.221253218423794,  0.360188609792405,  0.968601053479282 ]
    mass: 1.007940
  - symbol: H  # 224
    coordinates: [  0.778746744008888,  0.639811461305205,  0.031398931239744 ]
    mass: 1.007940
  - symbol: H  # 225
    coordinates: [  0.721253223709648,  0.139811453532431,  0.031398921033449 ]
    mass: 1.007940
  - symbol: H  # 226
    coordinates: [  0.278746755600010,  0.860188580591601,  0.968601043514977 ]
    mass: 1.007940
  - symbol: H  # 227
    coordinates: [  0.278746758922547,  0.360188584400401,  0.531398948157711 ]
    mass: 1.007940
  - symbol: H  # 228
    coordinates: [  0.721253222954526,  0.639811437041735,  0.468601060810164 ]
    mass: 1.007940
  - symbol: H  # 229
    coordinates: [  0.278746748539620,  0.639811434784668,  0.468601057749699 ]
    mass: 1.007940
  - symbol: H  # 230
    coordinates: [  0.721253236169160,  0.360188568883066,  0.531398965595245 ]
    mass: 1.007940
  - symbol: H  # 231
    coordinates: [  0.721253235791600,  0.860188548146263,  0.968601057749699 ]
    mass: 1.007940
  - symbol: H  # 232
    coordinates: [  0.278746744915034,  0.139811436265868,  0.031398957830204 ]
    mass: 1.007940
  - symbol: H  # 233
    coordinates: [  0.249975554983629,  0.855194626663190,  0.160089793790387 ]
    mass: 1.007940
  - symbol: H  # 234
    coordinates: [  0.750024427535298,  0.144805396048547,  0.839910203362669 ]
    mass: 1.007940
  - symbol: H  # 235
    coordinates: [  0.750024419606517,  0.644805382929345,  0.660089823683302 ]
    mass: 1.007940
  - symbol: H  # 236
    coordinates: [  0.249975547960994,  0.355194555142380,  0.339910259091603 ]
    mass: 1.007940
  - symbol: H  # 237
    coordinates: [  0.750024421116761,  0.355194612838654,  0.339910173896795 ]
    mass: 1.007940
  - symbol: H  # 238
    coordinates: [  0.249975545393580,  0.644805424544017,  0.660089751655611 ]
    mass: 1.007940
  - symbol: H  # 239
    coordinates: [  0.249975550075336,  0.144805378133078,  0.839910214038710 ]
    mass: 1.007940
  - symbol: H  # 240
    coordinates: [  0.750024431310907,  0.855194621161589,  0.160089798487845 ]
    mass: 1.007940
  - symbol: H  # 241
    coordinates: [  0.749975548112019,  0.355194647399992,  0.160089777562804 ]
    mass: 1.007940
  - symbol: H  # 242
    coordinates: [  0.250024431877249,  0.644805376863477,  0.839910194110100 ]
    mass: 1.007940
  - symbol: H  # 243
    coordinates: [  0.250024426553639,  0.144805354151741,  0.660089780338575 ]
    mass: 1.007940
  - symbol: H  # 244
    coordinates: [  0.749975543581287,  0.855194610863721,  0.339910194323621 ]
    mass: 1.007940
  - symbol: H  # 245