phonopy:
  version: 2.7.0
  calculator: dftbp
  frequency_unit_conversion_factor: 154.107943
  symmetry_tolerance: 1.00000e-03

physical_unit:
  atomic_mass: "AMU"

space_group:
  type: "Cmce"
  number: 64
  Hall_symbol: "-C 2bc 2"

supercell_matrix:
- [   2,   0,   0 ]
- [   0,   2,   0 ]
- [   0,   0,   2 ]

primitive_cell:
  lattice:
  - [    49.939723447936728,     0.000000000000000,     0.000000000000000 ] # a
  - [     0.000000000000000,    13.366225582007189,     0.000000000000000 ] # b
  - [     0.000000000000000,     0.000000000000000,    26.491970953951530 ] # c
  points:
  - symbol: C  # 1
    coordinates: [  0.027623383979848,  0.000000050832105,  0.000000039147785 ]
    mass: 12.010700
  - symbol: C  # 2
    coordinates: [  0.972376613923808,  0.000000081898848,  0.000000043573089 ]
    mass: 12.010700
  - symbol: C  # 3
    coordinates: [  0.972376560569215,  0.499999366543888,  0.499999852913360 ]
    mass: 12.010700
  - symbol: C  # 4
    coordinates: [  0.027623479355914,  0.500000477230467,  0.500000194237110 ]
    mass: 12.010700
  - symbol: C  # 5
    coordinates: [  0.527623358642092,  0.499999755623504,  0.999999993315467 ]
    mass: 12.010700
  - symbol: C  # 6
    coordinates: [  0.472376604652975,  0.499999816275813,  0.999999963337114 ]
    mass: 12.010700
  - symbol: C  # 7
    coordinates: [  0.472376672386820,  0.000000062911530,  0.500000211784788 ]
    mass: 12.010700
  - symbol: C  # 8
    coordinates: [  0.527623400644645,  0.999999895569383,  0.500000138598129 ]
    mass: 12.010700
  - symbol: C  # 9
    coordinates: [  0.053643351810835,  0.855620138057598,  0.050064880473192 ]
    mass: 12.010700
  - symbol: C  # 10
    coordinates: [  0.946356797506346,  0.144380064116766,  0.949935277277586 ]
    mass: 12.010700
  - symbol: C  # 11
    coordinates: [  0.946356514083719,  0.644379973562444,  0.550064918314832 ]
    mass: 12.010700
  - symbol: C  # 12
    coordinates: [  0.053643484099955,  0.355620434603563,  0.449935080615188 ]
    mass: 12.010700
  - symbol: C  # 13
    coordinates: [  0.946357370406024,  0.355619543622552,  0.449935392764138 ]
    mass: 12.010700
  - symbol: C  # 14
    coordinates: [  0.053642703193043,  0.644380248971998,  0.550064573852473 ]
    mass: 12.010700
  - symbol: C  # 15
    coordinates: [  0.053643332209644,  0.144379931925836,  0.949935193819115 ]
    mass: 12.010700
  - symbol: C  # 16
    coordinates: [  0.946356759287808,  0.855620063267221,  0.050064856591229 ]
    mass: 12.010700
  - symbol: C  # 17
    coordinates: [  0.553643245820611,  0.355619919129624,  0.050064770842999 ]
    mass: 12.010700
  - symbol: C  # 18
    coordinates: [  0.446356687202347,  0.644379754987922,  0.949935125340369 ]
    mass: 12.010700
  - symbol: C  # 19
    coordinates: [  0.446356625144521,  0.144379723954864,  0.550064919384812 ]
    mass: 12.010700
  - symbol: C  # 20
    coordinates: [  0.553643259821461,  0.855619872261930,  0.449935260799888 ]
    mass: 12.010700
  - symbol: C  # 21
    coordinates: [  0.446356132844336,  0.855620201254759,  0.449935089603023 ]
    mass: 12.010700
  - symbol: C  # 22
    coordinates: [  0.553643167113125,  0.144380044606233,  0.550064899269181 ]
    mass: 12.010700
  - symbol: C  # 23
    coordinates: [  0.553643360097825,  0.644379771953603,  0.949935118920486 ]
    mass: 12.010700
  - symbol: C  # 24
    coordinates: [  0.446356708771225,  0.355619891277631,  0.050064784709945 ]
    mass: 12.010700
  - symbol: C  # 25
    coordinates: [  0.027059973605816,  0.700869771209280,  0.088518510415993 ]
    mass: 12.010700
  - symbol: C  # 26
    coordinates: [  0.972940026322288,  0.299130260459991,  0.911481653077013 ]
    mass: 12.010700
  - symbol: C  # 27
    coordinates: [  0.972940049783173,  0.799130074897856,  0.588518432164759 ]
    mass: 12.010700
  - symbol: C  # 28
    coordinates: [  0.027060007525715,  0.200869572074600,  0.411481420177945 ]
    mass: 12.010700
  - symbol: C  # 29
    coordinates: [  0.972939929451537,  0.200870427851823,  0.411481758862409 ]
    mass: 12.010700
  - symbol: C  # 30
    coordinates: [  0.027060076163940,  0.799129916410120,  0.588518369321243 ]
    mass: 12.010700
  - symbol: C  # 31
    coordinates: [  0.027059972644676,  0.299130312629460,  0.911481586024908 ]
    mass: 12.010700
  - symbol: C  # 32
    coordinates: [  0.972940041458343,  0.700869839213384,  0.088518476105288 ]
    mass: 12.010700
  - symbol: C  # 33
    coordinates: [  0.527059957217252,  0.200869655065056,  0.088518404273937 ]
    mass: 12.010700
  - symbol: C  # 34
    coordinates: [  0.472940021213870,  0.799130034180222,  0.911481524679364 ]
    mass: 12.010700
  - symbol: C  # 35
    coordinates: [  0.472940040512340,  0.299130345005634,  0.588518566054974 ]
    mass: 12.010700
  - symbol: C  # 36
    coordinates: [  0.527060016247866,  0.700870002508063,  0.411481716705181 ]
    mass: 12.010700
  - symbol: C  # 37
    coordinates: [  0.472940144194316,  0.700869219683269,  0.411481472250325 ]
    mass: 12.010700
  - symbol: C  # 38
    coordinates: [  0.527059992786981,  0.299129999329885,  0.588518457273633 ]
    mass: 12.010700
  - symbol: C  # 39
    coordinates: [  0.527059926566741,  0.799130220802712,  0.911481498286514 ]
    mass: 12.010700
  - symbol: C  # 40
    coordinates: [  0.472940013645842,  0.200869579426395,  0.088518420894299 ]
    mass: 12.010700
  - symbol: C  # 41
    coordinates: [  0.052607254456749,  0.546970830028054,  0.132637126044158 ]
    mass: 12.010700
  - symbol: C  # 42
    coordinates: [  0.947392771539426,  0.453029398018974,  0.867363072544206 ]
    mass: 12.010700
  - symbol: C  # 43
    coordinates: [  0.947392688669525,  0.953028671110236,  0.632636991083962 ]
    mass: 12.010700
  - symbol: C  # 44
    coordinates: [  0.052607361317296,  0.046971390856914,  0.367362968256782 ]
    mass: 12.010700
  - symbol: C  # 45
    coordinates: [  0.947392901331096,  0.046970060733390,  0.367362856550828 ]
    mass: 12.010700
  - symbol: C  # 46
    coordinates: [  0.052607166364909,  0.953029527452981,  0.632637200657458 ]
    mass: 12.010700
  - symbol: C  # 47
    coordinates: [  0.052607250597055,  0.453029267241850,  0.867362953419721 ]
    mass: 12.010700
  - symbol: C  # 48
    coordinates: [  0.947392773431432,  0.546970781393102,  0.132637082888281 ]
    mass: 12.010700
  - symbol: C  # 49
    coordinates: [  0.552607221460149,  0.046970538684898,  0.132637044083659 ]
    mass: 12.010700
  - symbol: C  # 50
    coordinates: [  0.447392752051755,  0.953029211184412,  0.867362850701602 ]
    mass: 12.010700
  - symbol: C  # 51
    coordinates: [  0.447392744862129,  0.453029136181965,  0.632637065768595 ]
    mass: 12.010700
  - symbol: C  # 52
    coordinates: [  0.552607196864060,  0.546969984430240,  0.367362778656254 ]
    mass: 12.010700
  - symbol: C  # 53
    coordinates: [  0.447392714968420,  0.546971513462235,  0.367363160781923 ]
    mass: 12.010700
  - symbol: C  # 54
    coordinates: [  0.552607226000965,  0.453029435484853,  0.632637105429202 ]
    mass: 12.010700
  - symbol: C  # 55
    coordinates: [  0.552607236217802,  0.953028981864958,  0.867362994078976 ]
    mass: 12.010700
  - symbol: C  # 56
    coordinates: [  0.447392742213319,  0.046970623513303,  0.132637005493032 ]
    mass: 12.010700
  - symbol: C  # 57
    coordinates: [  0.026615927118022,  0.398782736540197,  0.172667064709364 ]
    mass: 12.010700
  - symbol: C  # 58
    coordinates: [  0.973384089035933,  0.601217486841269,  0.827333145363456 ]
    mass: 12.010700
  - symbol: C  # 59
    coordinates: [  0.973384003895624,  0.101217078788366,  0.672667197458266 ]
    mass: 12.010700
  - symbol: C  # 60
    coordinates: [  0.026616016863475,  0.898782644147926,  0.327332833428501 ]
    mass: 12.010700
  - symbol: C  # 61
    coordinates: [  0.973384162445799,  0.898782923798900,  0.327333053059813 ]
    mass: 12.010700
  - symbol: C  # 62
    coordinates: [  0.026615809382219,  0.101217074094528,  0.672667167213487 ]
    mass: 12.010700
  - symbol: C  # 63
    coordinates: [  0.026615929967384,  0.601217393812785,  0.827333075458069 ]
    mass: 12.010700
  - symbol: C  # 64
    coordinates: [  0.973384087143926,  0.398782717029664,  0.172667032253292 ]
    mass: 12.010700
  - symbol: C  # 65
    coordinates: [  0.526615922883711,  0.898782563136799,  0.172666929606505 ]
    mass: 12.010700
  - symbol: C  # 66
    coordinates: [  0.473384038897751,  0.101217051021202,  0.827333025525650 ]
    mass: 12.010700
  - symbol: C  # 67
    coordinates: [  0.473384095657957,  0.601217473692866,  0.672667019484859 ]
    mass: 12.010700
  - symbol: C  # 68
    coordinates: [  0.526616014835244,  0.398783258234886,  0.327333169473681 ]
    mass: 12.010700
  - symbol: C  # 69
    coordinates: [  0.473384164905408,  0.398782135672330,  0.327332850904848 ]
    mass: 12.010700
  - symbol: C  # 70
    coordinates: [  0.526615937641364,  0.601217303753296,  0.672666944586231 ]
    mass: 12.010700
  - symbol: C  # 71
    coordinates: [  0.526615877853947,  0.101217379547475,  0.827332989146316 ]
    mass: 12.010700
  - symbol: C  # 72
    coordinates: [  0.473384079008296,  0.898782430663107,  0.172666959137964 ]
    mass: 12.010700
  - symbol: C  # 73
    coordinates: [  0.109018055942539,  0.867120817171963,  0.073649946641397 ]
    mass: 12.010700
  - symbol: C  # 74
    coordinates: [  0.890981824482628,  0.132879392410749,  0.926350127187251 ]
    mass: 12.010700
  - symbol: C  # 75
    coordinates: [  0.890982112824473,  0.632879181484921,  0.573649696622642 ]
    mass: 12.010700
  - symbol: C  # 76
    coordinates: [  0.109017824058178,  0.367121159525266,  0.426350105787643 ]
    mass: 12.010700
  - symbol: C  # 77
    coordinates: [  0.890981284882271,  0.367120481322171,  0.426349808903747 ]
    mass: 12.010700
  - symbol: C  # 78
    coordinates: [  0.109019281773784,  0.632879761852590,  0.573650391253921 ]
    mass: 12.010700
  - symbol: C  # 79
    coordinates: [  0.109018060634716,  0.132879271770619,  0.926350079394793 ]
    mass: 12.010700
  - symbol: C  # 80
    coordinates: [  0.890981870647595,  0.867120693322492,  0.073649962477107 ]
    mass: 12.010700
  - symbol: C  # 81
    coordinates: [  0.609018100404700,  0.367120570533376,  0.073649899847587 ]
    mass: 12.010700
  - symbol: C  # 82
    coordinates: [  0.390981910190538,  0.632879066825194,  0.926349973823393 ]
    mass: 12.010700
  - symbol: C  # 83
    coordinates: [  0.390982001385269,  0.132879235449924,  0.573649946356069 ]
    mass: 12.010700
  - symbol: C  # 84
    coordinates: [  0.609018091323067,  0.867120843610149,  0.426350157788691 ]
    mass: 12.010700
  - symbol: C  # 85
    coordinates: [  0.390982813056213,  0.867120765002494,  0.426350521938689 ]
    mass: 12.010700
  - symbol: C  # 86
    coordinates: [  0.609018172300961,  0.132879348695844,  0.573649966329036 ]
    mass: 12.010700
  - symbol: C  # 87
    coordinates: [  0.609017962288199,  0.632879212305908,  0.926350103647682 ]
    mass: 12.010700
  - symbol: C  # 88
    coordinates: [  0.390981873485605,  0.367120627509788,  0.073649903770849 ]
    mass: 12.010700
  - symbol: C  # 89
    coordinates: [  0.144281032959627,  0.746860834364642,  0.030481230364134 ]
    mass: 12.010700
  - symbol: C  # 90
    coordinates: [  0.855719060732553,  0.253139210170271,  0.969518914646744 ]
    mass: 12.010700
  - symbol: C  # 91
    coordinates: [  0.855718685358391,  0.753139242192993,  0.530481009455980 ]
    mass: 12.010700
  - symbol: C  # 92
    coordinates: [  0.144281175162863,  0.246860908660186,  0.469518710851142 ]
    mass: 12.010700
  - symbol: C  # 93
    coordinates: [  0.855719093275071,  0.246861005223187,  0.469518622542093 ]
    mass: 12.010700
  - symbol: C  # 94
    coordinates: [  0.144280043818440,  0.753138568796841,  0.530481220812776 ]
    mass: 12.010700
  - symbol: C  # 95
    coordinates: [  0.144281000076548,  0.253139394389289,  0.969518739883277 ]
    mass: 12.010700
  - symbol: C  # 96
    coordinates: [  0.855719055813335,  0.746860884130639,  0.030481134793484 ]
    mass: 12.010700
  - symbol: C  # 97
    coordinates: [  0.644280975404779,  0.246860712565191,  0.030481111995769 ]
    mass: 12.010700
  - symbol: C  # 98
    coordinates: [  0.355719028454915,  0.753139100388177,  0.969518712777107 ]
    mass: 12.010700
  - symbol: C  # 99
    coordinates: [  0.355718972792074,  0.253139385340926,  0.530481228017311 ]
    mass: 12.010700
  - symbol: C  # 100
    coordinates: [  0.644281051463454,  0.746860790395252,  0.469518950883413 ]
    mass: 12.010700
  - symbol: C  # 101
    coordinates: [  0.355717935707433,  0.746860147961467,  0.469518815423894 ]
    mass: 12.010700
  - symbol: C  # 102
    coordinates: [  0.644280987135221,  0.253139188963169,  0.530481134857683 ]
    mass: 12.010700
  - symbol: C  # 103
    coordinates: [  0.644281017785732,  0.753139207978870,  0.969518881834011 ]
    mass: 12.010700
  - symbol: C  # 104
    coordinates: [  0.355719019827364,  0.246860722320457,  0.030481148546299 ]
    mass: 12.010700
  - symbol: C  # 105
    coordinates: [  0.194053309746123,  0.741361754421507,  0.062445049774208 ]
    mass: 12.010700
  - symbol: C  # 106
    coordinates: [  0.805946709022585,  0.258638642858188,  0.937555048307329 ]
    mass: 12.010700
  - symbol: C  # 107
    coordinates: [  0.805946810434153,  0.758638437644139,  0.562444733274004 ]
    mass: 12.010700
  - symbol: C  # 108
    coordinates: [  0.194053098333276,  0.241361790120128,  0.437555086755292 ]
    mass: 12.010700
  - symbol: C  # 109
    coordinates: [  0.805946831246229,  0.241361138072457,  0.437555214653616 ]
    mass: 12.010700
  - symbol: C  # 110
    coordinates: [  0.194054310315031,  0.758638139330916,  0.562446108412821 ]
    mass: 12.010700
  - symbol: C  # 111
    coordinates: [  0.194053273987193,  0.258638646392705,  0.937554850717614 ]
    mass: 12.010700
  - symbol: C  # 112
    coordinates: [  0.805946713185000,  0.741361453704813,  0.062444990019369 ]
    mass: 12.010700
  - symbol: C  # 113
    coordinates: [  0.694053256353689,  0.241361364422917,  0.062444943246959 ]
    mass: 12.010700
  - symbol: C  # 114
    coordinates: [  0.305946699335510,  0.758638415871515,  0.937554722319966 ]
    mass: 12.010700
  - symbol: C  # 115
    coordinates: [  0.305946752614423,  0.258638437149307,  0.562444955615932 ]
    mass: 12.010700
  - symbol: C  # 116
    coordinates: [  0.694053203755898,  0.741361496825918,  0.437555237265869 ]
    mass: 12.010700
  - symbol: C  # 117
    coordinates: [  0.305947410654410,  0.741361549702291,  0.437555959217314 ]
    mass: 12.010700
  - symbol: C  # 118
    coordinates: [  0.694053221162361,  0.258638569198857,  0.562444791837598 ]
    mass: 12.010700
  - symbol: C  # 119
    coordinates: [  0.694053213972735,  0.758638546507258,  0.937555048307329 ]
    mass: 12.010700
  - symbol: C  # 120
    coordinates: [  0.305946659830407,  0.241361628522017,  0.062444988963655 ]
    mass: 12.010700
  - symbol: C  # 121
    coordinates: [  0.209921370514433,  0.859446106798337,  0.136035195638723 ]
    mass: 12.010700
  - symbol: C  # 122
    coordinates: [  0.790078681326555,  0.140554490902603,  0.863964809782511 ]
    mass: 12.010700
  - symbol: C  # 123
    coordinates: [  0.790078469421786,  0.640554374108027,  0.636035195210731 ]
    mass: 12.010700
  - symbol: C  # 124
    coordinates: [  0.209921418911969,  0.359446208804494,  0.363964750434264 ]
    mass: 12.010700
  - symbol: C  # 125
    coordinates: [  0.790078507640325,  0.359445512787433,  0.363964759992756 ]
    mass: 12.010700
  - symbol: C  # 126
    coordinates: [  0.209920967365611,  0.640553725453493,  0.636035077013562 ]
    mass: 12.010700
  - symbol: C  # 127
    coordinates: [  0.209921336193429,  0.140554243246075,  0.863964739163804 ]
    mass: 12.010700
  - symbol: C  # 128
    coordinates: [  0.790078679812949,  0.859445518513350,  0.136035248852416 ]
    mass: 12.010700
  - symbol: C  # 129
    coordinates: [  0.709921327565877,  0.359445514059859,  0.136035202343934 ]
    mass: 12.010700
  - symbol: C  # 130
    coordinates: [  0.290078711485144,  0.640554281927828,  0.863964559407096 ]
    mass: 12.010700
  - symbol: C  # 131
    coordinates: [  0.290078603527233,  0.140553959579890,  0.636035040491565 ]
    mass: 12.010700
  - symbol: C  # 132
    coordinates: [  0.709921405894961,  0.859445687321875,  0.363964980551383 ]
    mass: 12.010700
  - symbol: C  # 133
    coordinates: [  0.290078066651366,  0.859445988886854,  0.363964787954910 ]
    mass: 12.010700
  - symbol: C  # 134
    coordinates: [  0.709921399083737,  0.140554362599641,  0.636035094347245 ]
    mass: 12.010700
  - symbol: C  # 135
    coordinates: [  0.709921329836286,  0.640554504461009,  0.863964749863608 ]
    mass: 12.010700
  - symbol: C  # 136
    coordinates: [  0.290078646210908,  0.359446020626816,  0.136035072448313 ]
    mass: 12.010700
  - symbol: C  # 137
    coordinates: [  0.175421225651603,  0.982373161522874,  0.178286793540506 ]
    mass: 12.010700
  - symbol: C  # 138
    coordinates: [  0.824578782786747,  0.017627467550437,  0.821713180993960 ]
    mass: 12.010700
  - symbol: C  # 139
    coordinates: [  0.824578918254439,  0.517627157785379,  0.678286752310595 ]
    mass: 12.010700
  - symbol: C  # 140
    coordinates: [  0.175421042808060,  0.482373510945211,  0.321713226289797 ]
    mass: 12.010700
  - symbol: C  # 141
    coordinates: [  0.824578949283351,  0.482372738723967,  0.321713136197447 ]
    mass: 12.010700
  - symbol: C  # 142
    coordinates: [  0.175422285440327,  0.517627719066657,  0.678286972298566 ]
    mass: 12.010700
  - symbol: C  # 143
    coordinates: [  0.175421215661807,  0.017627011498795,  0.821713216659974 ]
    mass: 12.010700
  - symbol: C  # 144
    coordinates: [  0.824578770299502,  0.982372486288772,  0.178286925433424 ]
    mass: 12.010700
  - symbol: C  # 145
    coordinates: [  0.675421178048711,  0.482372534570273,  0.178286848822827 ]
    mass: 12.010700
  - symbol: C  # 146
    coordinates: [  0.324578794138788,  0.517627163016464,  0.821712947738232 ]
    mass: 12.010700
  - symbol: C  # 147
    coordinates: [  0.324578771321186,  0.017626758187041,  0.678286647238519 ]
    mass: 12.010700
  - symbol: C  # 148
    coordinates: [  0.675421144370989,  0.982372809767756,  0.321713278290845 ]
    mass: 12.010700
  - symbol: C  # 149
    coordinates: [  0.324579634719597,  0.982373753766519,  0.321713467463381 ]
    mass: 12.010700
  - symbol: C  # 150
    coordinates: [  0.675421179183915,  0.017627305358527,  0.678286774994179 ]
    mass: 12.010700
  - symbol: C  # 151
    coordinates: [  0.675421163291057,  0.517627443091580,  0.821713086835684 ]
    mass: 12.010700
  - symbol: C  # 152
    coordinates: [  0.324578744833090,  0.482373016678373,  0.178286706444101 ]
    mass: 12.010700
  - symbol: C  # 153
    coordinates: [  0.125221327653250,  0.983996615166816,  0.148258876631809 ]
    mass: 12.010700
  - symbol: C  # 154
    coordinates: [  0.874778740156276,  0.016003889463226,  0.851741243063332 ]
    mass: 12.010700
  - symbol: C  # 155
    coordinates: [  0.874778432515960,  0.516003608992244,  0.648258993758998 ]
    mass: 12.010700
  - symbol: C  # 156
    coordinates: [  0.125221473602660,  0.483997080379925,  0.351740889684470 ]
    mass: 12.010700
  - symbol: C  # 157
    coordinates: [  0.874778712532976,  0.483995490695621,  0.351741385370726 ]
    mass: 12.010700
  - symbol: C  # 158
    coordinates: [  0.125220463422356,  0.516004442431320,  0.648257861006408 ]
    mass: 12.010700
  - symbol: C  # 159
    coordinates: [  0.125221312479355,  0.016003474129218,  0.851741177437867 ]
    mass: 12.010700
  - symbol: C  # 160
    coordinates: [  0.874778727290629,  0.983996142955363,  0.148258918575041 ]
    mass: 12.010700
  - symbol: C  # 161
    coordinates: [  0.625221281980205,  0.483996090573823,  0.148258858370810 ]
    mass: 12.010700
  - symbol: C  # 162
    coordinates: [  0.374778747762143,  0.516003511580959,  0.851741034773813 ]
    mass: 12.010700
  - symbol: C  # 163
    coordinates: [  0.374778620505762,  0.016003340439652,  0.648258851380272 ]
    mass: 12.010700
  - symbol: C  # 164
    coordinates: [  0.625221373553337,  0.983996252384005,  0.351741156252255 ]
    mass: 12.010700
  - symbol: C  # 165
    coordinates: [  0.374777831576741,  0.983996762768240,  0.351740376593200 ]
    mass: 12.010700
  - symbol: C  # 166
    coordinates: [  0.625221347443642,  0.016003904944410,  0.648258872708548 ]
    mass: 12.010700
  - symbol: C  # 167
    coordinates: [  0.625221335713199,  0.516003689155086,  0.851740989834636 ]
    mass: 12.010700
  - symbol: C  # 168
    coordinates: [  0.374778723355255,  0.483996360469530,  0.148258754083387 ]
    mass: 12.010700
  - symbol: H  # 169
    coordinates: [  0.093940363407150,  0.544775436699975,  0.134352600591050 ]
    mass: 1.007940
  - symbol: H  # 170
    coordinates: [  0.906059658918531,  0.455224822026660,  0.865647677817852 ]
    mass: 1.007940
  - symbol: H  # 171
    coordinates: [  0.906059616537577,  0.955223927157680,  0.634352376679817 ]
    mass: 1.007940
  - symbol: H  # 172
    coordinates: [  0.093940432957322,  0.044775747270902,  0.365647458471869 ]
    mass: 1.007940
  - symbol: H  # 173
    coordinates: [  0.906059726652377,  0.044774873552472,  0.365647665406079 ]
    mass: 1.007940
  - symbol: H  # 174
    coordinates: [  0.093940306722624,  0.955224965315973,  0.634352665645858 ]
    mass: 1.007940
  - symbol: H  # 175
    coordinates: [  0.093940360606980,  0.455224596383103,  0.865647433862319 ]
    mass: 1.007940
  - symbol: H  # 176
    coordinates: [  0.906059661567341,  0.544775412099737,  0.134352502010188 ]
    mass: 1.007940
  - symbol: H  # 177
    coordinates: [  0.593940342405874,  0.044775262900711,  0.134352468626800 ]
    mass: 1.007940
  - symbol: H  # 178
    coordinates: [  0.406059621645996,  0.955224418738285,  0.865647398909626 ]
    mass: 1.007940
  - symbol: H  # 179
    coordinates: [  0.406059653053310,  0.455224675132139,  0.634352559931794 ]
    mass: 1.007940
  - symbol: H  # 180
    coordinates: [  0.593940408626114,  0.544775083813811,  0.365647413176032 ]
    mass: 1.007940
  - symbol: H  # 181
    coordinates: [  0.406059709435114,  0.544775663191815,  0.365647563044620 ]
    mass: 1.007940
  - symbol: H  # 182
    coordinates: [  0.593940354136316,  0.455224685594309,  0.634352493949669 ]
    mass: 1.007940
  - symbol: H  # 183
    coordinates: [  0.593940322729002,  0.955224545556751,  0.865647527307275 ]
    mass: 1.007940
  - symbol: H  # 184
    coordinates: [  0.406059638295656,  0.044775154306215,  0.134352458996976 ]
    mass: 1.007940
  - symbol: H  # 185
    coordinates: [  0.047104746415669,  0.281384312723240,  0.205146316927964 ]
    mass: 1.007940
  - symbol: H  # 186
    coordinates: [  0.952895270498872,  0.718616006090181,  0.794853988587108 ]
    mass: 1.007940
  - symbol: H  # 187
    coordinates: [  0.952895061999716,  0.218614974364708,  0.705146514018354 ]
    mass: 1.007940
  - symbol: H  # 188
    coordinates: [  0.047104901711593,  0.781384615631335,  0.294853664739705 ]
    mass: 1.007940
  - symbol: H  # 189
    coordinates: [  0.952895422237822,  0.781383993414987,  0.294853786360812 ]
    mass: 1.007940
  - symbol: H  # 190
    coordinates: [  0.047104576324252,  0.218615666847252,  0.705146570869980 ]
    mass: 1.007940
  - symbol: H  # 191
    coordinates: [  0.047104749329360,  0.718615846895541,  0.794853836649891 ]
    mass: 1.007940
  - symbol: H  # 192
    coordinates: [  0.952895264066049,  0.281384262391720,  0.205146251231167 ]
    mass: 1.007940
  - symbol: H  # 193
    coordinates: [  0.547104738015159,  0.781384031305008,  0.205146157928875 ]
    mass: 1.007940
  - symbol: H  # 194
    coordinates: [  0.452895230577527,  0.218615650588475,  0.794853752478099 ]
    mass: 1.007940
  - symbol: H  # 195
    coordinates: [  0.452895267660862,  0.718615819750452,  0.705146216849130 ]
    mass: 1.007940
  - symbol: H  # 196
    coordinates: [  0.547104739528764,  0.281384093724576,  0.294853692273868 ]
    mass: 1.007940
  - symbol: H  # 197
    coordinates: [  0.452895262741644,  0.281384455941864,  0.294853781082242 ]
    mass: 1.007940
  - symbol: H  # 198
    coordinates: [  0.547104744069581,  0.718615905709902,  0.705146173621921 ]
    mass: 1.007940
  - symbol: H  # 199
    coordinates: [  0.547104713040668,  0.218615715058062,  0.794853845209734 ]
    mass: 1.007940
  - symbol: H  # 200
    coordinates: [  0.452895260471236,  0.781384010663429,  0.205146155432254 ]
    mass: 1.007940
  - symbol: H  # 201
    coordinates: [  0.132734973524753,  0.657706867415115,  0.970780857383731 ]
    mass: 1.007940
  - symbol: H  # 202
    coordinates: [  0.867265050390214,  0.342293161567923,  0.029219383511658 ]
    mass: 1.007940
  - symbol: H  # 203
    coordinates: [  0.867264892596842,  0.842292812004206,  0.470780470264820 ]
    mass: 1.007940
  - symbol: H  # 204
    coordinates: [  0.132734845965650,  0.157707174140488,  0.529219094895143 ]
    mass: 1.007940
  - symbol: H  # 205
    coordinates: [  0.867265039416574,  0.157706401353721,  0.529219301900686 ]
    mass: 1.007940
  - symbol: H  # 206
    coordinates: [  0.132735276851293,  0.842293718254329,  0.470781001474425 ]
    mass: 1.007940
  - symbol: H  # 207
    coordinates: [  0.132734939128068,  0.342293393856372,  0.029219102919996 ]
    mass: 1.007940
  - symbol: H  # 208
    coordinates: [  0.867265066661473,  0.657707033537407,  0.970780664073937 ]
    mass: 1.007940
  - symbol: H  # 209
    coordinates: [  0.632734930878918,  0.157706827333694,  0.970780652660813 ]
    mass: 1.007940
  - symbol: H  # 210
    coordinates: [  0.367265040513938,  0.842292950274505,  0.029219128000337 ]
    mass: 1.007940
  - symbol: H  # 211
    coordinates: [  0.367265106696338,  0.342293384242486,  0.470780901609587 ]
    mass: 1.007940
  - symbol: H  # 212
    coordinates: [  0.632734882821944,  0.657706932732986,  0.529219372448061 ]
    mass: 1.007940
  - symbol: H  # 213
    coordinates: [  0.367264925290721,  0.657706956626320,  0.529219456691185 ]
    mass: 1.007940
  - symbol: H  # 214
    coordinates: [  0.632734905904427,  0.342293117033011,  0.470780636825103 ]
    mass: 1.007940
  - symbol: H  # 215
    coordinates: [  0.632734902120414,  0.842292902487837,  0.029219333186913 ]
    mass: 1.007940
  - symbol: H  # 216
    coordinates: [  0.367265031886387,  0.157706660645878,  0.970780785338383 ]
    mass: 1.007940
  - symbol: H  # 217
    coordinates: [  0.220575581014675,  0.642094545627694,  0.030063020576185 ]
    mass: 1.007940
  - symbol: H  # 218
    coordinates: [  0.779424474723847,  0.357905867062495,  0.969937090095455 ]
    mass: 1.007940
  - symbol: H  # 219
    coordinates: [  0.779424366879456,  0.857905675279610,  0.530062903769990 ]
    mass: 1.007940
  - symbol: H  # 220
    coordinates: [  0.220575501890948,  0.142094557998503,  0.469936961198482 ]
    mass: 1.007940
  - symbol: H  # 221
    coordinates: [  0.779424449370955,  0.142094126221923,  0.469937066912546 ]
    mass: 1.007940
  - symbol: H  # 222
    coordinates: [  0.220575693437723,  0.857905592713296,  0.530063268205317 ]
    mass: 1.007940
  - symbol: H  # 223
    coordinates: [  0.220575519335251,  0.357906050150468,  0.969936797634144 ]
    mass: 1.007940
  - symbol: H  # 224
    coordinates: [  0.779424483048678,  0.642094258766305,  0.030062901344702 ]
    mass: 1.007940
  - symbol: H  # 225
    coordinates: [  0.720575519789333,  0.142094153367013,  0.030062912921890 ]
    mass: 1.007940
  - symbol: H  # 226
    coordinates: [  0.279424471772317,  0.857905734659493,  0.969936754834928 ]
    mass: 1.007940
  - symbol: H  # 227
    coordinates: [  0.279424484789324,  0.357905783365135,  0.530062971321420 ]
    mass: 1.007940
  - symbol: H  # 228
    coordinates: [  0.720575519410931,  0.642094238407488,  0.469937222059705 ]
    mass: 1.007940
  - symbol: H  # 229
    coordinates: [  0.279424307394760,  0.642094614338702,  0.469937171271302 ]
    mass: 1.007940
  - symbol: H  # 230
    coordinates: [  0.720575529627769,  0.357905640853416,  0.530062737780364 ]
    mass: 1.007940
  - symbol: H  # 231
    coordinates: [  0.720575493301237,  0.857905770428804,  0.969937095802017 ]
    mass: 1.007940
  - symbol: H  # 232
    coordinates: [  0.279424424131584,  0.142094387352029,  0.030062943230868 ]
    mass: 1.007940
  - symbol: H  # 233
    coordinates: [  0.249277885782170,  0.855602032282896,  0.159794287236373 ]
    mass: 1.007940
  - symbol: H  # 234
    coordinates: [  0.750722172491642,  0.144398786028448,  0.840205660191924 ]
    mass: 1.007940
  - symbol: H  # 235
    coordinates: [  0.750722086594530,  0.644398635528720,  0.659794320976421 ]
    mass: 1.007940
  - symbol: H  # 236
    coordinates: [  0.249277831065331,  0.355602102902543,  0.340205729027330 ]
    mass: 1.007940
  - symbol: H  # 237
    coordinates: [  0.750722174383649,  0.355601351605639,  0.340205741795762 ]
    mass: 1.007940
  - symbol: H  # 238
    coordinates: [  0.249278113806837,  0.644397629181078,  0.659794347440603 ]
    mass: 1.007940
  - symbol: H  # 239
    coordinates: [  0.249277845179702,  0.144398411511041,  0.840205601699661 ]
    mass: 1.007940
  - symbol: H  # 240
    coordinates: [  0.750722163031607,  0.855601184847133,  0.159794385531906 ]
    mass: 1.007940
  - symbol: H  # 241
    coordinates: [  0.749277823156743,  0.355601262111672,  0.159794325185011 ]
    mass: 1.007940
  - symbol: H  # 242
    coordinates: [  0.250722188270979,  0.644398519879328,  0.840205371297214 ]
    mass: 1.007940
  - symbol: H  # 243
    coordinates: [  0.250722098476333,  0.144397980158603,  0.659794056477265 ]
    mass: 1.007940
  - symbol: H  # 244
    coordinates: [  0.749277865916097,  0.855601588488959,  0.340205935890208 ]
    mass: 1.007940
  - symbol: H  # 245